17
Lattice="20.0 0.0 0.0 0.0 20.0 0.0 0.0 0.0 20.0" Properties=species:S:1:pos:R:3:castep_forces:R:3:gomace_forces:R:3:forces_gomace_l0_1:R:3:forces_gomace_l1_1:R:3:forces_gomace_l2_1:R:3:forces_gomace_l0_2:R:3:forces_gomace_l1_2:R:3:forces_gomace_l2_2:R:3:forces_gomace_l0_3:R:3:forces_gomace_l1_3:R:3:forces_gomace_l2_3:R:3:forces_gomace_l0_4:R:3:forces_gomace_l1_4:R:3:forces_gomace_l2_4:R:3:forces_painn_1:R:3:forces_painn_2:R:3:forces_painn_3:R:3:forces_painn_4:R:3:forces_tensornet_1:R:3:forces_tensornet_2:R:3:forces_tensornet_3:R:3:forces_tensornet_4:R:3:forces_schnet_1:R:3:forces_schnet_2:R:3:forces_schnet_3:R:3:forces_schnet_4:R:3:forces_nequip_1:R:3:forces_nequip_2:R:3:forces_nequip_3:R:3:forces_nequip_4:R:3 castep_energy=-1823.08208619 gomace_energy=-1822.20654296875 energy_gomace_l0_1=-1822.380615234375 energy_gomace_l1_1=-1821.460693359375 energy_gomace_l2_1=-1821.288818359375 energy_gomace_l0_2=-1822.6036376953125 energy_gomace_l1_2=-1822.4056396484375 energy_gomace_l2_2=-1821.2376708984375 energy_gomace_l0_3=-1822.3741455078125 energy_gomace_l1_3=-1821.9412841796875 energy_gomace_l2_3=-1821.22607421875 energy_gomace_l0_4=-1822.082275390625 energy_gomace_l1_4=-1821.9879150390625 energy_gomace_l2_4=-1821.442138671875 energy_painn_1=-1820.760498046875 energy_painn_2=-1824.4503173828125 energy_painn_3=-1821.4482421875 energy_painn_4=-1821.4945068359375 energy_tensornet_1=-1820.5283203125 energy_tensornet_2=-1819.0853271484375 energy_tensornet_3=-1820.3348388671875 energy_tensornet_4=-1819.3089599609375 energy_schnet_1=-1821.1583251953125 energy_schnet_2=-1820.9302978515625 energy_schnet_3=-1823.4954833984375 energy_schnet_4=-1826.4178466796875 energy_nequip_1=-1822.1253662109375 energy_nequip_2=-1821.2601318359375 energy_nequip_3=-1823.18115234375 energy_nequip_4=-1822.00048828125 pbc="T T T"
H       10.48052000      10.00416000      11.08156000      -1.37434000      -0.18801000      -1.85568000      -1.40220129      -0.19949934      -1.87686241      -1.31421208      -0.03351516      -2.66935968      -1.13631475       0.03254510      -1.71883452      -1.37284374      -0.14824064      -1.86864269      -1.57344139      -0.19034918      -2.43263364      -1.23839951       0.07419624      -1.36804652      -1.48333800      -0.26125121      -1.70485818      -0.99279374      -0.29451805      -2.18277001      -1.20547199      -0.05223887      -1.76104629      -1.57017672      -0.08572190      -2.02776432      -1.25911105      -0.09929539      -2.18905759      -1.54808426       0.00750481      -1.59949768      -1.54419792      -0.05251152      -2.17528844      -0.75658542      -0.11344945      -1.74011064      -0.53866118      -0.20519319      -2.15905428      -0.66934866       0.27612770      -0.68903559      -1.04822147       0.15405893      -1.28157628      -1.45835114      -0.20961192      -2.30876517      -1.94655287       0.54860252      -3.09575558      -0.77186060      -0.45987269      -1.66291070      -1.53248966      -0.39797980      -1.65426660      -2.11482620       0.10888045      -2.18649507      -0.83218014      -0.00030945      -2.08273363      -0.41068923      -0.39309940      -0.38579690       0.17980415       0.28661644      -1.55163956      -1.50914693      -0.32859367      -1.48907793      -1.42872548      -0.14214642      -1.67691350      -1.73149991       0.09055410      -2.09897614      -1.73130870      -0.25126696      -2.46455193
H        9.00876000      10.53912000       9.99168000       0.90325000      -0.28104000      -0.19890000       0.77658123      -0.32955921      -0.30264777       1.18146324      -0.51280230       0.01561804       0.91385245      -0.16492486      -0.20215726       0.70752621      -0.08050525      -0.18265685       1.09266329      -0.51335680      -0.06024557       0.53475416       0.03856772      -0.10128847       0.62884164      -0.01112260       0.00404157       0.84727919      -0.34697661      -0.26671854       0.84269798      -0.00046740      -0.20716995       0.84145176      -0.14029589       0.00730327       0.97427213      -0.30485293      -0.02788667       0.95812762      -0.39370391      -0.24550536       0.95580143      -0.27435914      -0.03627810       0.81654048      -0.27705196      -0.16382004       0.53302091       0.03398204      -0.01118593       0.68040383      -0.42045218      -0.00802153       0.46334508      -0.17221828      -0.01507960       0.85795701      -0.29437470      -0.08342421       2.12472010      -0.80248117       0.15940404       0.93027145      -0.10752583      -0.68913782       0.21753401       0.15628311      -0.34700185       0.89135945      -0.22594100       0.82394707       1.81969821      -1.49701166      -0.39206070       0.45264649      -0.78526318      -0.58896500       2.88118672      -2.37008929      -0.40233049       0.75377250      -0.40107149      -0.08306433       0.58789003      -0.04709627      -0.46344179       1.31373143      -0.66764140      -0.28775078       1.42876303      -0.85922724       0.15386397
H        9.42186000       8.76990000       8.32704000       0.27759000      -0.60369000       0.75352000       0.26505548      -0.56949484       0.49891496       0.33594158      -0.66901422       0.95415288       0.12528247      -0.57085443       0.36547661       0.31220299      -0.60167056       0.52770090       0.32020718      -0.55176604       0.58518207       0.34128487      -0.50693274       0.48227596       0.24581087      -0.68086225       0.48660266       0.34123635      -0.60558128       0.54136759       0.38732314      -0.57084250       0.38582602       0.22989866      -0.71834600       0.66473275       0.25934952      -0.69772106       0.48881379       0.27258030      -0.50133961       0.74952477       0.27275038      -0.80622220       0.71784300       0.60684800      -0.53811795       0.58649856       0.40787590      -0.44565088       0.42005366       0.09596314      -0.49355626       0.62488359       0.13394582      -0.24129428       0.26925051       0.07005115      -0.87820816       0.35436690      -0.63385415      -1.63133121       0.88672924       0.72677708      -0.91571426       0.59547311       0.19665185      -0.84275067       0.26478851      -0.03943133      -0.85693550       1.08555269       1.20547128       0.50111431       1.72379529      -0.02843451      -0.18437876      -0.59968019       0.95222688      -0.52407485       3.23351932       0.24744704      -0.77573562       0.77664423       0.34171644      -0.52024627       0.45245969       0.42653438      -0.73925591       1.10280621       0.24415796      -0.80581164       0.78299177
H        9.05654000       8.00790000       9.97924000      -0.60775000       0.17108000      -0.36569000      -0.72300303       0.17880899      -0.17244217      -0.70189279       0.43494505      -0.43862370      -0.84766018      -0.01044752      -0.07657041      -0.58092499       0.18655643      -0.29306453      -0.67997187       0.19861497      -0.31736463      -0.78886151       0.07671008      -0.17081314      -0.68918109       0.04592744      -0.15776800      -0.74450624      -0.01505632      -0.10639311      -0.84750164       0.04762220      -0.03853885      -0.65883732       0.21473673      -0.30852872      -0.68282366       0.16089025      -0.28204355      -0.70003033       0.20247847      -0.29488030      -0.73549747       0.16894458      -0.47207898      -0.37084073       0.15751174      -0.01156967      -0.22853631      -0.26947409      -0.01150501      -0.53321624       0.22602686      -0.31445700      -0.34898317      -0.18475372      -0.10552061      -1.00273979      -0.11558466      -0.57074118      -1.35576463       0.15331607      -1.10996056      -0.36343247       0.31293476      -0.59311485      -1.25827813       0.24650031      -0.57855737      -1.11496019       0.12384206      -0.62988865       2.02175522       0.27414632       0.41544738      -1.09738207      -1.12717128       1.11706257       2.67232680       1.78857660      -1.66291177      -0.62526834       0.16766497      -0.40449575      -0.37249428       0.09242266      -0.07964355      -0.08923230       0.25814411      -0.61291033      -0.47291413       0.17600210      -0.51264858
H       11.04456000       6.63462000       8.57484000      -0.16901000       1.93912000       1.20034000      -0.12323128       1.89560997       1.12627029      -0.19126987       2.29668880       1.08632922      -0.14693728       1.94473791       1.07297373      -0.26350614       2.19301462       1.28968036      -0.20411839       2.15224195       1.07546270      -0.25597069       1.91925895       1.04218853      -0.16875426       2.10401368       1.24764121      -0.21904585       1.96139848       0.93021750      -0.28847444       2.22147560       1.08852100      -0.23564675       1.92444861       1.25783920      -0.15268084       2.07789564       1.03930593      -0.23244555       1.91541672       1.04710543      -0.32620537       2.09579062       1.39455414      -0.09509628       2.11239219       1.58034706      -0.50380754       1.85353756       1.51311374      -0.07858291       1.38999319       1.31126750      -0.15833044       1.55906677       1.33769226      -0.44657099       2.25258255       1.77516174      -0.63087869       1.19735932       0.90959883      -0.42809188       2.24616122       1.15236688      -0.48803267       1.88663101       1.13142538      -0.33827382       0.97240984       1.62276459       0.24945983       0.53757155      -0.40646088      -0.04990730       0.44416285      -0.69794953       0.55993903       1.39106238       3.19640684      -0.18500814       1.96508849       1.37956250      -0.13673945       1.81670547       0.82070267      -0.25626212       1.96735275       1.30616844      -0.23669586       2.07879281       1.56247783
H       10.82010000       6.80126000      10.40328000       0.57025000       1.61246000      -1.98762000       0.56482536       1.56027889      -1.99876428       0.64889133       1.96542239      -2.11660051       0.55134881       1.70917046      -2.02165484       0.58078235       1.75613642      -2.06669879       0.64464939       1.98975301      -1.95174122       0.52217352       1.71474743      -1.91113341       0.47365615       1.74792039      -2.16848135       0.57500708       1.79397893      -1.77200603       0.60181999       1.86568022      -2.02221990       0.55701321       1.54086804      -2.01671195       0.54187429       1.75088143      -1.76356649       0.52640921       1.72182608      -1.90617323       0.56315422       1.73350215      -2.26921964       0.61289859       1.22570443      -1.79672360       0.32552770       1.65575957      -2.46327829       0.42617625       0.54477179      -1.54808462       0.44398388       0.80629891      -1.70817244       0.69335425       2.11345792      -3.12556982       0.76023757       1.04899788      -2.83795357       0.65747982       2.03360701      -2.29767728       0.67211694       1.33362973      -1.67561305       0.85578227       1.12784195      -3.05475044      -0.89292598       1.16477537       0.12370068      -0.48578000       0.53565407       0.07597542      -0.22625500       2.78803086      -3.59673905       0.54331005       1.61484694      -2.25761008       0.39357099       1.37176216      -1.40844536       0.40269160       1.46277761      -1.95225799       0.53238821       1.41972196      -2.16208553
H       12.86960000       8.39710000       8.54380000      -0.55197000       0.12043000       0.57173000      -0.47419208       0.07190183       0.44159806      -0.72318590      -0.10319176       1.05034757      -0.29573765       0.36889580       0.42310947      -0.50210428       0.25574034       0.41881344      -0.82360816      -0.09237725       1.04200578      -0.24246186       0.08655924       0.52558655      -0.47180283       0.15818392       0.39124352      -0.66164464       0.12311000       0.57479262      -0.43054384      -0.08991772       0.55254263      -0.34822896       0.21096784       0.40361619      -0.71590412       0.12033483       0.57653224      -0.50304472      -0.09684914       0.52051759      -0.38964927       0.16400100       0.62081158      -0.62151629      -0.05599994       0.70141232      -0.11913574       0.15284359       0.78375375       0.21303967      -0.03533789      -0.10755543       0.06152047       0.18093979      -0.16870508      -0.46765566      -0.17735632       0.81589776      -0.48507380      -0.70972282       2.28473186      -0.95923686       0.09326734       0.33868596      -0.39524770      -0.68026030       0.15028009      -0.11689705      -0.63468826       1.19095659      -1.22840822      -0.29754969       1.32924485      -0.06275344      -0.44144955       0.92863023      -2.04515600      -0.64258784       1.80810237      -0.46452606      -0.11232480       0.22515981      -0.40240157       0.09029698       0.45776564      -0.63064122      -0.09520002       0.91870403      -0.67442673      -0.17388496       0.95907152
H       13.15200000       7.43100000       9.99074000      -0.68453000       0.66490000      -0.06767000      -0.61729413       0.48741257      -0.02463526      -0.85022700       0.77452290      -0.15896046      -0.50498509       0.55257982       0.12509653      -0.52118874       0.51594734       0.20338041      -0.99144340       0.96378005      -0.21950518      -0.36129358       0.56275845      -0.07591683      -0.34219956       0.44847795       0.15049422      -0.80791855       0.61230034       0.09220892      -0.48041853       0.75897634       0.07912219      -0.55187988       0.70822632       0.08854252      -0.83853912       0.68422461       0.11489406      -0.74536699       0.59235191      -0.03984955      -0.56741256       0.79776514      -0.10734504      -0.80320722       0.84392583      -0.12810406      -0.54619026       1.09969211      -0.45924103      -0.54892749       0.49291074      -0.08516432      -0.50760734       0.40840539       0.08502756      -0.85231400       0.77126479      -0.44947219      -1.36581254       1.95035112      -1.31841481      -0.63754094       0.37089577       0.54045820      -0.16222942       0.53543460       0.24963965      -0.52004015       1.09926414      -0.78045607      -2.59555221       2.04265618      -0.65715128      -1.32544732       1.67270410      -1.06766427      -2.71383429       1.57962847      -0.56541073      -0.53975511       0.38760176       0.01212870      -0.65654933       0.74295050       0.15755017      -1.15407133       0.91297412      -0.11151984      -1.14461911       0.85338420      -0.51130068
H       13.15340000      10.47372000       8.46970000      -2.29567000      -0.03680000       2.17696000      -2.71186256       0.09351626       2.67223072      -2.82880926       0.27424797       3.35795403      -2.53348041       0.20985723       2.76890254      -2.57857800      -0.09674811       2.50347114      -2.36567569       0.26008826       2.51062441      -2.15907836       0.32804787       2.40655804      -2.45069766       0.06612462       2.30563354      -2.47436762       0.24178264       2.77780962      -2.73484254       0.34340793       2.89300156      -2.67032361       0.21186405       2.84683657      -2.56625104       0.15287718       2.79326224      -2.49218345       0.32269377       2.63767910      -2.35667062       0.20205164       2.55372858      -2.25809360      -0.08911736       2.33868909      -2.48896837      -0.16065484       2.96116233      -0.50311249       0.09014416       0.69848293      -1.50527728      -0.01965132       1.86144805      -2.64297247      -0.03314993       3.04261708      -2.24309707       0.15831505       2.33679605      -2.46266484      -0.14949024       1.55856311      -1.81047130       0.14273629       1.73498809      -0.59177566       0.59809941       1.22222209      -0.86538684       0.12042222       1.17335010       0.47557470      -0.80408037      -0.86323750      -0.72490507       0.23131141       0.33648151      -2.08052206      -0.14211702       1.88887858      -2.72786641       0.06497939       2.50572586      -2.77922392       0.39314902       2.77132559      -2.19908834       0.27558047       2.54414320
H       12.61354000      11.55416000      10.01692000       0.14913000      -1.59778000      -0.43482000      -0.06634849      -1.73942447      -0.85915160      -0.16750133      -2.08871984      -1.02308166      -0.09790859      -2.25770974      -1.13697755      -0.15255794      -1.80590999      -0.52392107       0.00854647      -1.27873826      -0.56072402       0.15551190      -1.66466355      -0.61074769       0.20652114      -1.57542193      -0.50700581      -0.05314475      -1.64225543      -0.81897682      -0.04594995      -1.93841696      -0.87516230       0.15047294      -1.94956720      -0.86468899      -0.00411130      -1.47571409      -0.65173966      -0.15416408      -2.04496765      -0.99722970       0.18437427      -1.80240357      -0.81899357      -0.38557547      -1.82210350      -0.46391436      -0.48713571      -1.53510857      -0.55556667       0.22530676      -0.13483039       0.08094414       0.24161544      -0.51409930      -0.23453343      -0.24862112      -1.83117628      -0.96299183      -0.83882535      -3.06165981      -1.42424047      -0.69778085      -2.50072312      -0.34573475      -0.03749302      -1.56832433      -0.30654490       0.36969596      -0.50985795      -0.68461686       0.08021730      -1.38550103      -0.52613628       0.22627407       1.75584137       1.72843421      -0.55210829      -3.46256900       0.49218395       0.06992686      -1.53744638      -0.50202954      -0.08414274      -1.34707677      -0.27134076      -0.12674119      -2.63445210      -1.18977690       0.26792848      -1.27039552      -0.94488502
C       10.00000000      10.00000000      10.00000000       1.48640000      -1.17495000       0.64509000       1.71544611      -0.53275168       1.10692465       1.06822813      -0.79886609       0.61846638       1.52922535      -0.98782480       1.05052876       1.17662120      -1.40741932       1.08661747       1.45790029      -1.07779455       0.99136603       1.54529047      -1.33092356       0.02008948       1.43811321      -1.30076754       0.71704930       1.02064598      -0.75390351       0.74098027       1.50085163      -1.79342055       0.54751205       1.20273232      -1.07386482       1.13026011       0.82613432      -1.11241663       0.87707043       1.60001493      -1.26592422       0.91699624       1.44409502      -0.96930099       1.21067393       0.70636147      -0.96905172      -0.51492500       0.90895724      -0.25670260      -0.61935413       0.37560785      -0.55183250      -0.34063041       1.58137631      -0.26281106      -0.47271803       1.36058140      -0.80123174       0.95376027       1.18549347      -0.98093194       1.33718503       0.35405701      -0.70228231       0.77068394       1.98801208      -1.66017771       1.00839436      -0.00028217      -0.45863849      -0.32389081      -2.05396891      -2.53625345      -0.13831288      -0.07889426      -1.84081388      -1.02934265      -0.83299017      -2.39489961      -1.31950748       1.37660575      -1.41638267       0.35068065       0.68832767      -2.08506393       1.24370885       2.35003948      -0.06203634       1.00317645       0.93128902      -0.64949715       0.69627428
C        9.80176000       8.52016000       9.35914000       0.37194000       0.59785000       0.36750000       0.74419415       0.07286970       0.14562279       0.09671995       0.50443125       0.36503202       0.81328046       0.52742285       0.10161412       0.30402669       0.60507941       0.53881484       0.62464929       0.57146430       0.50817019       0.75014138       0.43547541       0.50576413       0.70184541       0.38614997       0.38528520       0.60608995       0.83450472       0.29606432       0.58533067       0.68953609       0.55131876       0.53108382       0.43874720       0.16527081       0.66245741       0.59898424       0.49622664       0.17033723       0.74753380       0.27513322       0.19353148       0.56945562       0.39187688       2.30074620      -0.07059438       0.74335766       1.24918747       0.37618053       0.50322086       1.29789495       0.76351476       0.18248296       1.45667243       0.38368279       0.42846134       1.89387274       0.53544629       1.34435308       2.18423605       2.06823421       0.33615786       0.72144359       0.16879046       1.23909628       1.00526440      -0.11869845       1.35043812       1.45856738       0.63966715       0.21273971       0.53636152       1.76714242      -0.00929757       4.23909521       2.39086771       1.08387232      -0.32941276       0.69622785       1.27326155       0.59086955       0.83022869       0.62007701       0.95871186       0.92800248       0.56571013      -0.23846081       0.30480850      -0.08797747       0.47144824       0.74496359       0.78300178
C       11.01726000       7.48696000       9.40770000      -0.34609000      -1.40116000       1.39991000      -0.63440937      -1.19327068       1.38396883      -0.05205405      -1.85450542       1.46354723      -0.38548321      -1.59728086       1.45693398      -0.23894441      -1.92853165       1.16084993      -0.20326638      -1.29418445       1.45149755      -0.22649530      -1.39593589       1.29828596      -0.17868394      -1.51088023       1.27046299       0.10209978      -1.08237481       1.40417790      -0.06961776      -1.80330098       1.23319316      -0.73029935      -1.71432090       1.17163634      -0.17899707      -1.18556118       1.14934015       0.25166938      -1.77861488       1.28339696      -0.19962886      -2.08603716       1.11758304      -1.12234950       0.45113647       0.35664380      -0.58735430      -1.45444751       1.25915551      -0.49172109      -0.33282748       0.89303690      -0.69843662      -0.40327573       0.99920291      -0.07175541      -1.56710017       1.41164899       0.57470161       0.24533141       2.52882814       0.22357675      -1.16000998       0.99603516       0.15952650       0.10459056       0.37550867      -1.04264665      -0.54689252       1.64165282       0.76767683       1.30571580       0.23072650       0.55573469       2.70462084       1.33615875       2.55709982       1.84391570      -0.61934662      -0.17754364      -1.10672688       1.31680334      -0.42478096      -0.51830840       1.13593400      -0.63251173      -1.72558510       1.16750205      -0.36697462      -1.34199095       0.94639736
C       12.41192000       8.17084000       9.54876000       0.58798000      -1.03714000      -0.14040000       0.52197260      -0.71386248      -0.11239934       1.14841390      -1.17700851       0.02656338       0.27778789      -1.14160907      -0.22836441       0.40368885      -1.24241781      -0.38047752       0.84600532      -1.61333144      -0.45914069      -0.13850090      -1.44671798      -0.09695861      -0.24443421      -1.02381051      -0.15486005       0.54396868      -1.37383687      -0.18465120      -0.13911627      -1.00769424      -0.12394580       0.73064715      -1.35297942      -0.12111560       0.70428538      -1.59586728      -0.25260031       0.21132523      -0.68676186      -0.47536051       0.52185309      -1.27031851      -0.20832382      -0.59269595      -1.08999729       0.54593563      -0.31407878      -0.02222252       1.23512077      -0.11183447      -0.39476463       0.51823425      -0.26367223      -0.09217083       0.70670217      -0.25421044      -0.98635960       0.34484434       0.51439989      -0.81802082       0.00757207      -0.19392031      -0.35126784       0.21753448      -0.79701334      -1.14279354       0.47523332       0.41826430      -0.52907431       0.94366878       0.06386031      -2.07624674       0.07817507      -1.45518339      -1.50724959       0.10535949      -1.96299791      -1.58776665       0.48402971       0.00756551      -0.54768258       0.05742526       0.10683030      -1.81896329      -0.57291508       1.43421865       0.33081809       0.20888776       1.01216125      -1.22234917       0.14950074
C       12.37774000      10.58340000       9.43574000      -1.25557000      -0.67345000       1.40685000       0.14547896       0.12936866       0.52168661      -0.30037451      -0.18749082       0.46017683       0.17749941       0.42564145       0.63726205      -0.14809108      -0.45604813       1.13805532      -0.46499318      -0.57812703       0.56865060      -1.47508144      -0.34712946       0.64016944      -0.22314030      -0.07749832       0.61209613      -0.44239521      -0.38657451       0.60004187       0.21843350       0.14979954       0.37599295      -0.06379372       0.18804553       0.69719332       0.06221545       0.07130447       0.34011018      -0.42330801      -0.15846437       0.82108611      -0.85189772      -0.41880035       0.68485773       0.36309367       0.82026345       0.04961361       0.43013203      -0.09467483      -0.40468568      -0.81094968      -0.55811638       0.65626228      -0.90105999      -0.39713708      -0.10484737       0.28615063       0.52425003       0.13520879       1.93211448       1.86434865      -0.18952228       1.29858756       0.64705396       0.97844326      -0.43686426       1.04190242       0.57237208      -0.84987426      -0.10639143       0.53681898       0.11800426       0.55020094       0.63006747      -2.41592288      -2.34028769      -0.11995518      -1.12759292       0.42078170       0.79228574      -1.37593889      -0.29283127       1.30287695      -0.27081203      -0.23111364       0.16179132      -1.61639702      -0.71928430       1.57061219      -1.57857513      -0.44726861       1.05140984
O       12.37034000       9.36278000      10.40046000       2.03198000       1.38470000      -2.75065000       1.54342568       0.58217120      -2.14283800       1.66464877       0.99041295      -3.35181785       1.49902248       0.47855043      -1.89035654       2.01728702       1.62066627      -2.54022646       1.58619118       0.85834479      -2.40846992       2.05372620       1.06689072      -2.34484291       2.04815197       0.76419127      -1.81381476       1.77303505       0.67123234      -2.48699379       1.86779284       0.43378341      -2.01650524       1.85279393       1.12319362      -2.37294197       1.49434900       0.88605499      -2.56758475       2.09050989       0.78962278      -1.69023299       1.84449482       1.31196773      -2.00502944       1.17432725       0.09665269      -3.05187106       1.13626397       0.21272618      -3.87963104       0.37488592      -0.06974676      -2.46276450       1.06577444      -0.59597325      -2.39817286       1.17869473       0.86979115      -2.91281509       1.08912015      -0.90439355      -1.68018103       2.22489572      -0.18298373      -2.03989220       2.09642696       0.41068059      -2.19681787       2.21716905      -0.50107503      -2.68564796       1.52699780       0.35116643      -2.20636058       0.41089499       0.42000714      -2.21517682       0.42615861       0.93122131      -2.79245377       1.91160107       1.00395417      -2.37912107       1.80326700       1.18098426      -2.34825468       1.69356060       1.11904621      -3.99801445       2.15445566       0.68979174      -2.40631247
O       10.92284000      10.70904000       9.11072000       0.90641000       0.50346000      -0.72045000       0.47556287       0.20592421      -0.40747619       0.98521972       0.18444288       0.36025676       0.06120771       0.48125052      -0.72698194       0.85660428       0.63435119      -1.01169646       0.72570580       0.19573706      -0.32313445       0.98326063       0.38909128      -0.24117076       0.50929105       0.72062522      -1.06376314       0.58645433       0.26277021      -0.13915113       0.23768738       0.74601787      -0.66244215       0.73309308       0.47399792      -0.72147942       0.87348092      -0.03201902      -0.14107701       0.71765387       0.62719733      -1.00270987       0.99110550       0.63647461      -0.59937179       0.42514500      -0.68210357       0.96854115       0.82290316      -0.94059259       1.88792181       0.05841487      -0.79202473       0.59011912      -0.01664484      -0.60906756       0.80154103       1.10452878      -0.17263927       0.23592073      -0.86516440      -0.32631418       0.86902428      -0.62256050       0.65715909      -0.75887281       0.58258629       0.55259609      -0.55426741       0.51817012      -0.30051118       1.06542289       0.07891984      -0.82203984       0.71400589       1.05017459      -0.50006402       1.19227469       0.28651035      -0.97538549       0.89406842       1.45661092       0.69152731      -0.81483823       1.62419784       0.42191130      -0.68039429       1.63426566      -0.19616932       0.29000115       1.36201108       0.78345615      -0.62734896
17