13
Lattice="20.0 0.0 0.0 0.0 20.0 0.0 0.0 0.0 20.0" Properties=species:S:1:pos:R:3:castep_forces:R:3:gomace_forces:R:3:forces_gomace_l0_1:R:3:forces_gomace_l1_1:R:3:forces_gomace_l2_1:R:3:forces_gomace_l0_2:R:3:forces_gomace_l1_2:R:3:forces_gomace_l2_2:R:3:forces_gomace_l0_3:R:3:forces_gomace_l1_3:R:3:forces_gomace_l2_3:R:3:forces_gomace_l0_4:R:3:forces_gomace_l1_4:R:3:forces_gomace_l2_4:R:3:forces_painn_1:R:3:forces_painn_2:R:3:forces_painn_3:R:3:forces_painn_4:R:3:forces_tensornet_1:R:3:forces_tensornet_2:R:3:forces_tensornet_3:R:3:forces_tensornet_4:R:3:forces_schnet_1:R:3:forces_schnet_2:R:3:forces_schnet_3:R:3:forces_schnet_4:R:3:forces_nequip_1:R:3:forces_nequip_2:R:3:forces_nequip_3:R:3:forces_nequip_4:R:3 castep_energy=-1757.218926215 gomace_energy=-1756.296875 energy_gomace_l0_1=-1756.1199951171875 energy_gomace_l1_1=-1755.9874267578125 energy_gomace_l2_1=-1756.6446533203125 energy_gomace_l0_2=-1756.11474609375 energy_gomace_l1_2=-1756.7628173828125 energy_gomace_l2_2=-1756.0201416015625 energy_gomace_l0_3=-1756.23828125 energy_gomace_l1_3=-1756.5064697265625 energy_gomace_l2_3=-1756.2716064453125 energy_gomace_l0_4=-1755.82421875 energy_gomace_l1_4=-1756.52490234375 energy_gomace_l2_4=-1756.931884765625 energy_painn_1=-1754.961669921875 energy_painn_2=-1758.0791015625 energy_painn_3=-1755.672119140625 energy_painn_4=-1756.455078125 energy_tensornet_1=-1755.18994140625 energy_tensornet_2=-1756.5748291015625 energy_tensornet_3=-1754.2808837890625 energy_tensornet_4=-1753.6866455078125 energy_schnet_1=-1756.8621826171875 energy_schnet_2=-1755.37255859375 energy_schnet_3=-1758.5291748046875 energy_schnet_4=-1758.87451171875 energy_nequip_1=-1756.5511474609375 energy_nequip_2=-1756.9869384765625 energy_nequip_3=-1757.170166015625 energy_nequip_4=-1756.306396484375 pbc="T T T"
H        9.02540000      10.44560000      10.06800000      -0.31868000       0.60154000       0.61581000      -0.35457364       0.63496464       0.61997622      -0.42556620       0.67338079       0.59180260      -0.18559563       0.75137496       0.40252516      -0.09867617       0.42713699       0.62955433      -0.54029834       0.59177244       0.67872733      -0.19699813       0.55264497       0.61620325      -0.46299803       0.51734000       0.78453493      -0.36529672       0.58156145       0.49216026      -0.22696452       0.50507033       0.49888864      -0.32272264       0.45500940       0.65084469      -0.29959035       0.52785867       0.56367749      -0.42528141       0.67456794       0.64754152      -0.29264429       0.52388304       0.63775772      -0.06002092       0.50788414       0.44429705      -0.95171386       0.92767859       0.39041230      -0.32483521       0.45925486       0.63346368      -0.46379223       0.63279146       0.41782939      -0.54265708       0.74811190       0.54902399       0.14286737       0.20234492       0.46148100      -0.43826824       0.84000331       0.49086377      -0.74296415       0.78559107       0.67133069      -0.65515602       1.07844460       0.19054556      -0.37276822      -0.05299988       0.13811493      -0.01002526       0.47646827      -0.04469939      -1.46419525       0.37122670       0.38152856      -0.43991393       0.58514500       0.75203782      -0.13166893       0.73341244       0.62091982      -0.50639534       0.55691278       0.63339359      -0.56482273       0.49081188       0.69057184
H        9.23516000       8.10422000      10.62142000       0.99132000       0.61797000      -1.42551000       0.91692829       0.50629818      -1.31555629       0.82745314       0.46320951      -1.06313300       1.00945830       0.47816396      -1.29224956       1.09980142       0.71558797      -1.47496343       0.95814919       0.54561949      -1.23499119       0.98557705       0.44083178      -1.32813644       0.77994579       0.63768464      -1.51471126       1.37686539       0.68262196      -1.35676301       1.22988343       0.60587072      -1.55812025       0.98149341       0.70573819      -1.42437232       1.21388054       0.66898155      -1.36109567       0.96155500       0.53368604      -1.47090530       0.96602911       0.68652642      -1.38478494       1.38482440       0.77162665      -1.59863305       1.10997307       0.35055271      -1.25419247       0.50566220       0.34034002      -1.15535581       0.81649244       0.36689907      -1.12118173       0.88623965       0.56465703      -1.36553848       1.13993955       0.96960384      -1.55801260       0.84633082       0.36423951      -1.31136680       0.32488769       0.20711541      -1.23367774       1.26184225       0.57155246      -1.08261704       2.50475216       1.48962963      -1.84906089       1.03069234       0.33652759      -0.84751302       1.35130548       1.13340974      -0.86670685       1.06891704       0.65290892      -1.51417804       1.06526089       0.58782578      -1.52973664       0.98159802       0.50336361      -1.32972026       0.85731304       0.56261045      -1.24840224
H       12.96316000       7.77240000       8.95878000       0.09150000       1.13472000      -0.53415000       0.38225874       1.40694547      -0.21756192       0.08338942       1.35913312      -0.24280611       0.02022084       0.66340137      -0.40516615       0.21710004       1.10780752      -0.46745995       0.12831819       1.05941641      -0.80596131       0.22004306       0.82381165      -0.43627718       0.18462452       0.83980560      -0.45515168       0.68891990       0.95112228      -0.79613358       0.34797794       1.14057791      -0.46536306       0.35221457       0.94400036      -0.65684903       0.25994256       1.15799403      -0.45481002       0.49345672       1.16730893      -0.55672163       0.08749217       0.91900206      -0.58925831      -0.52929616       1.09034312       0.07502891      -0.88110435       0.28670251      -0.54221529      -0.54456174       0.56986803      -0.28325626       0.14062326       0.13416594      -0.51012909       0.34483999       0.55253589      -0.21058610      -0.98473328       1.08230662       0.53491759       0.60424203       0.29051998      -0.70724821       0.35051697       0.71680641      -0.29651195       0.51406223       0.66365904      -0.05337900      -0.95242906       0.90341586       0.77954221      -0.12501717       1.46557987       0.98844624       0.03127912       1.05499387       0.78874719       0.32099068       0.91736943      -0.42508730       0.20900141       1.17231774      -0.28928596       0.02797724       1.18890834      -0.14975879      -0.16990191       0.84376580      -0.48231143
H       13.05210000      10.52614000       8.87472000      -2.04196000      -0.75263000       0.30454000      -1.67187798      -0.78334224       0.39140147      -2.14449596      -1.17965817       0.81877452      -1.80055094      -0.16939574       0.16037217      -1.91405559      -0.58952671       0.45572132      -2.05669284      -0.92063719       0.14834039      -1.76537204      -0.18972710       0.15982637      -1.80200589      -0.56642020       0.36918217      -1.31081593      -0.95137179       0.30708551      -1.88345623      -0.59119964       0.42220050      -1.49313748      -0.52121538       0.21401143      -1.91882968      -1.00226057       0.37501574      -1.69534361      -0.70367122       0.39945149      -1.83600187      -0.46389347       0.25683796      -2.70876122      -0.77271521       0.51415706      -2.81758261      -0.63936460       0.49347490      -2.36380410      -0.23253630       0.40635902      -1.94863582      -0.36398241       0.41529548      -1.36898243      -0.34009773       0.38841063      -2.12104082      -0.92754382       0.99765003      -1.65030921      -0.60282344       0.24991842      -0.52706915      -0.01427926      -0.31142682      -1.71550977      -0.15794057       0.29742527      -2.28371143      -1.61439991       1.71063995      -2.01493859      -1.20960748       1.17578197      -1.89346313      -2.04356575       1.84784436      -1.88239074      -0.50231117       0.30137405      -1.90067339      -0.59452426       0.33767998      -2.03856587      -0.80734390       0.59823382      -2.13979053      -0.56892717       0.37410894
H       12.38164000       9.53402000      11.64700000      -0.20893000      -0.88672000      -0.72183000      -0.86975729      -0.86945546      -0.37775248      -0.02456397      -1.02402711      -1.06475389      -0.10346894      -0.88157642       0.06178707      -0.23650178      -0.83210391      -0.54778761      -0.48064512      -0.95536387      -0.27443627      -0.29336050      -0.76856601      -0.35354754      -0.05913474      -0.81719983      -0.22705653      -0.00254789      -0.95228660      -0.61313248      -0.31019723      -0.86206794      -0.22003706      -0.08929664      -0.77910346      -0.23437691      -0.60081917      -0.80382240      -0.91772699      -0.34727919      -0.84019995      -0.19283253      -0.36954379      -1.02498937      -0.64347667       0.00015700      -0.10539966      -0.02501518       0.43896294      -0.79123062      -0.29175842       1.06160700      -0.52285480      -0.49658558       0.50330395      -0.33347875       0.07803878      -0.09013017      -0.42419013      -0.69402409       0.80249661      -0.50929594      -0.76505047      -0.30240446      -0.77032548      -1.49621618       0.21850781      -0.25670835      -1.28680956      -0.28613591      -0.12873346       0.36971617      -0.47631907       0.03215751       0.63178444      -0.04416168       0.15980953       0.59857965       0.70849109      -0.19396070      -0.78602010      -0.25494862      -0.81005633      -0.57847637      -0.56694573      -0.90253019      -0.53947812       0.09745508      -0.98358911      -0.64242369       0.01383267      -0.87048894      -0.29675248
H       13.93968000       9.42994000      10.73230000      -0.29397000      -0.28479000      -0.26483000       0.50077045      -0.38266635      -1.29585791      -0.34042698      -0.42452717      -0.47262657       0.12074962      -0.46812925      -0.19168606      -0.22290300      -0.38338521      -0.31657445       0.15252861      -0.41767949      -0.44496593      -0.03110464      -0.46410573      -0.26058632      -0.27440861      -0.39223561      -0.31321928       0.22569928      -0.35130104      -0.24910788       0.09330496      -0.39481938      -0.48340893      -0.06260589      -0.23869909      -0.21597451       0.11546213      -0.36984053      -0.67349279       0.15924793      -0.41252863      -0.69851893      -0.33873799      -0.40291524      -0.45635384      -0.05344615      -0.22267216       0.16693459      -0.15264848      -0.45608950       0.60279995      -1.12609935      -0.38329726       0.73158199      -0.10722524      -0.36524895       0.60341889      -0.47392830      -0.38240439      -0.14803188       0.40561551      -0.05255111       0.45648593      -1.33768690      -0.75674945      -0.41727486      -0.70469481      -0.31740502      -0.27353540       1.31923175       0.14597122       0.49898273      -0.01684916       0.16503593      -0.53494626      -0.04587388      -0.04512510      -0.34984308      -2.11275411       0.14773680      -0.21137094       0.15634067      -0.34113729      -0.28310412       0.10321724      -0.55473161      -0.63246453      -0.46014774      -0.55632138      -0.26009178       0.24135199      -0.31668985      -0.08435187
C       10.00000000      10.00000000      10.00000000      -0.03996000      -1.63312000      -0.91654000      -1.08005142      -0.92823565      -0.77761185      -0.54187632      -1.95745790      -1.04780173       0.00332844      -1.28732991      -0.80077970       0.13765156      -1.70518756      -1.00504780      -0.25863141      -1.85460782      -1.33785343       0.08090404      -1.66126990      -1.11933398      -0.03357518      -2.04962492      -1.23027110      -0.40390578      -2.14792967      -0.96741921      -0.37512916      -0.58507192      -0.70998621       0.41267231      -1.93451440      -1.12331033      -0.50589037      -1.87689054      -1.04114676      -0.02114311      -0.86767650      -0.85128331       0.64616454      -2.40526199      -1.14337826      -0.99527746      -3.27422118      -1.29656267      -0.19618797      -1.40212631      -1.17324674      -1.34390438      -1.29505229      -1.50049162      -1.11942768      -1.95548582      -0.89557219      -0.25403321      -1.47271967      -1.05652189       0.07189133      -0.97697604      -1.25871539       0.10131878      -1.42879593      -0.97287381       0.17690989      -2.33354092      -1.18696296      -1.04040372       0.97570920      -0.44576320      -2.14793158      -1.20700979       0.86027765       0.86833793       0.50800109      -0.79806292      -1.18117428      -0.24531572       0.62896007      -0.60439205      -1.55596280      -1.19843292      -0.25854611      -1.46944666      -1.19602954       0.36060196      -2.81508780      -1.10361195      -0.83785808      -2.30130219      -0.66980225
C       10.03398000       8.64432000       9.99334000      -0.89732000      -2.14091000       1.24671000      -1.26059937      -2.94295883       1.35881317      -0.74073386      -1.73740876       1.14230788      -1.16565180      -2.89897275       1.17442083      -0.53611881      -2.04198146       0.98761010      -0.72770846      -1.84109449       1.65485990      -0.54113382      -1.85413682       1.28050613      -0.34309345      -1.78743029       1.14169800      -1.13029420      -1.61791718       1.36583805      -1.50910401      -2.85329056       1.54310310      -0.59921998      -1.59851551       1.03698158      -0.82733369      -1.82910907       1.48777616      -0.93771350      -2.72585249       1.48621225      -0.08861107      -1.46001565       1.03618097      -0.82670844       0.19434622       2.37195945      -0.51591742      -1.13457429       1.99809110       0.10591525      -1.77910483       1.93858838      -0.50048339      -1.16382575       1.91363001      -0.55945569      -1.86622286       1.46318340      -0.23535287      -2.11903405       1.60945332      -0.56013048      -1.76292467       1.62705994      -1.02106202      -0.68767190       1.84526515      -2.43621469      -4.06639385       1.70735550      -1.96203506      -2.29558253       1.27598393      -1.12095881      -2.64917278       1.01379299      -0.13957274      -3.07145405       0.62939912      -1.30225396      -2.49894595       1.78629613      -0.48389849      -2.46217823       1.59555852       0.06927359      -1.17309237       1.12080252      -1.58692729      -1.36857963       1.60064483
C       12.25950000       8.49096000       9.42098000       0.40568000      -1.26747000       1.80854000      -0.49022925      -2.31537604       1.71897566       0.81365967      -1.08464885       1.44863904      -0.49929535      -2.01167893       1.29927182      -0.23155487      -2.28098774       1.61611748      -0.33702707      -1.71480834       1.78163409      -1.10260653      -2.21924877       1.75059569      -0.43030256      -3.61774158       0.86463523      -0.21741930      -0.56627077       2.24028826      -0.72159058      -4.05518818       1.84783506      -0.99126828      -2.43337154       1.53317559       0.29851413       0.36939090       2.66952705      -0.72099721      -1.99160469       1.80425680      -0.77511835      -1.34978485       2.14072895       1.61087930       1.00924897       2.51730013       1.75722432       1.66569090       2.93418407       1.78206515       1.58409464       2.28034234       0.67452741       2.08227158       2.64899564      -0.69085974       0.62614083       1.52358687       0.87273324       0.61180294       1.17332149      -0.40151632       0.74640477       2.61274362       1.63360751       1.34144866       2.64269161       2.67153859       1.22592425       1.48341274       2.63085580       1.34924352       0.60154170       2.38008046       3.17926216       2.37708688       1.81253183       1.78913093       0.11286593      -0.30092227       0.23810336       2.45462990      -0.34907287      -2.03101611       0.47746408      -0.21481192      -0.40655008       2.35398102       0.36684358       1.31261098       2.75435162
C       12.17966000       9.96694000       9.41164000       3.70090000       2.04290000      -0.23119000       3.05100346       3.23298836      -0.37654769       3.29898739       1.62809062      -0.55327743       2.55192900       2.24943829      -0.27518389       2.31351066       2.86395073      -0.12691620       2.61630297       2.19889688      -0.47079158       2.25261354       2.72909451      -0.44646814       2.22759771       4.46577692      -0.96953654       2.49359179       1.00050879       0.28851843       2.99551225       4.45112944      -0.67008388       2.07955623       2.74235725      -0.09836447       3.36719322       0.49432957       0.69234061       2.69040132       2.41494393      -0.23718727       2.70796967       1.74965048       0.16630191       4.22531700      -0.56562936       1.90332377       4.51909542      -1.57150543       0.91588902       4.14236164      -1.29051495       1.23837090       3.91451263      -1.29085362       1.15791106       1.49878025       0.12166351      -0.04136321       2.70430207       0.06013656       0.20515297       2.19498181       0.16043484       1.01539779       2.46039891      -1.40940797       2.11673331       4.11916828      -0.07225195       0.56078351       3.10989499       0.43531972       0.21768129       4.87459087      -1.45761359       1.66399109       2.05062222      -0.48356748       0.92858893       3.16613150       0.69848979       0.37505281       2.70161486       2.41944575      -1.24803960       2.44290972       1.25732017       0.09934247       4.31703568      -0.73988330       0.77375865
C       12.85214000       9.26360000      10.67336000      -0.88240000       1.11034000      -0.79765000      -0.51428044       0.91013467       0.02347440      -0.95056903       1.44318771      -0.48155880      -0.75493324       1.70233798      -0.63193631      -0.70465064       1.37327743      -0.81725240      -0.97425777       1.42301869      -0.00862372      -0.72440255       1.24494159      -0.45195565      -0.38518542       1.37575758       0.22127783      -1.84359288       1.35115743      -1.56213832      -0.65603393       1.31859827      -0.55034214      -1.04540706       1.37022650      -0.80296648      -1.37428284       0.90220755      -1.77340364      -1.09935474       1.39125502      -0.57023960      -0.98736334       1.67791867      -0.93316561      -3.14124465       0.58591694      -5.22773314      -2.92375040       1.72458386      -3.99090624      -2.87241101       1.52484441      -4.31102753      -3.21907806       1.24141359      -4.78817511      -0.08408308       0.74136615      -1.00159216      -2.71031189       0.52869654      -2.62166834      -0.19899082       1.56704593      -1.40284956      -1.66527045       0.16904140      -2.91725135      -3.11376214      -0.23588407      -4.64284897      -1.43870771       0.11630511      -3.79185104      -4.23097992      -1.08817744      -7.60053825      -1.07430959       0.02029860      -3.19335222      -1.62694550       1.00219679      -2.10046768      -0.18021265       1.57152128       1.28810954      -1.33577812       1.41352630      -1.84611905      -2.75152826       1.41923964      -3.19589567
O       11.08422000       7.71668000       9.56406000      -1.82032000       2.48806000       1.16136000      -0.96367908       3.18452978       0.85028028      -1.60440719       3.12378311       1.05725920      -1.06144321       3.77119160       0.88255841      -1.71426928       3.01960325       1.33296275      -0.79346001       3.41360617       0.62189299      -0.94271314       3.78667831       0.82414365      -1.44027233       3.44579411       1.42011714      -1.22897577       3.53201652       1.03937900      -0.84059709       3.33124900       0.75933719      -1.04564154       3.66057515       1.20780838      -1.43016648       2.75296879       0.74087328      -0.97557968       3.44693089       0.80366629      -1.35581982       3.33930445       1.09784484      -1.14238012       2.70171714       0.12342443      -0.70171446       2.80545568      -0.08774325      -1.58256531       2.69063759       0.44198877      -1.00827122       2.71322632       0.16904072      -0.73777419       3.24484301       0.64011753      -1.00008607       2.35603738       0.64733130      -0.62559450       3.14308953       0.52270722      -1.22132564       2.49566817       0.47367913      -2.17158747       2.30436301       0.85096312      -1.73712134       0.61179644       0.68917978      -1.47012222       2.36500335       1.11638236      -1.30055666       0.88940203       0.73945415      -0.90614820       3.31552458       0.82307053      -1.73648512       3.57651758       1.14354813      -1.59175766       3.16154170       0.94460899      -0.36953032       2.76469612       0.47907361
O       10.99780000      10.80202000       9.53712000       1.31414000      -1.02990000      -0.24526000       2.35408735      -1.65382576      -0.60203314       1.74914956      -1.28305709      -0.13282578       1.86525297      -1.89882493      -0.38393375       1.89066672      -1.67419124      -0.26596448       2.31342220      -1.52813864      -0.30783126       2.05855370      -2.42094898      -0.23496938       2.03880811      -2.05150652      -0.09149879       1.71777225      -1.51191151      -0.18857490       1.85639405      -2.01085830      -0.41402277       1.82336307      -2.37248802      -0.08660744       1.70191944      -0.99180770      -0.30753398       1.91803145      -2.08715916      -0.56343997       1.63618517      -1.78942478      -0.18523486       2.23595762      -1.92044473       0.03151894       1.31536341      -1.76577258       0.00521144       2.56056929      -1.66567969       0.07602126       2.31745291      -1.69789243      -0.08910105       2.07204485      -2.11368370      -0.04666471       0.91167933      -1.22552800       0.11765382       1.76802778      -1.79011881      -0.21086141       0.71755767      -0.69665682      -0.24352421       1.53292680      -2.30441976       0.26542333       3.14236927       0.06708801      -0.72888780      -0.09162416      -2.04095554       0.70659536       3.21179676       0.63166481      -0.99993789       2.60553551      -1.70132411      -0.39271519       1.52840889      -2.04661345      -0.02824643       2.16764069      -1.33958840      -0.41863716       2.62398195      -1.22786403      -0.69499397
13
Lattice="20.0 0.0 0.0 0.0 20.0 0.0 0.0 0.0 20.0" Properties=species:S:1:pos:R:3:castep_forces:R:3:gomace_forces:R:3:forces_gomace_l0_1:R:3:forces_gomace_l1_1:R:3:forces_gomace_l2_1:R:3:forces_gomace_l0_2:R:3:forces_gomace_l1_2:R:3:forces_gomace_l2_2:R:3:forces_gomace_l0_3:R:3:forces_gomace_l1_3:R:3:forces_gomace_l2_3:R:3:forces_gomace_l0_4:R:3:forces_gomace_l1_4:R:3:forces_gomace_l2_4:R:3:forces_painn_1:R:3:forces_painn_2:R:3:forces_painn_3:R:3:forces_painn_4:R:3:forces_tensornet_1:R:3:forces_tensornet_2:R:3:forces_tensornet_3:R:3:forces_tensornet_4:R:3:forces_schnet_1:R:3:forces_schnet_2:R:3:forces_schnet_3:R:3:forces_schnet_4:R:3:forces_nequip_1:R:3:forces_nequip_2:R:3:forces_nequip_3:R:3:forces_nequip_4:R:3 castep_energy=-1759.877172794 gomace_energy=-1758.962646484375 energy_gomace_l0_1=-1759.0101318359375 energy_gomace_l1_1=-1758.93115234375 energy_gomace_l2_1=-1758.5120849609375 energy_gomace_l0_2=-1758.9029541015625 energy_gomace_l1_2=-1758.79248046875 energy_gomace_l2_2=-1758.6851806640625 energy_gomace_l0_3=-1759.151611328125 energy_gomace_l1_3=-1758.790283203125 energy_gomace_l2_3=-1758.4515380859375 energy_gomace_l0_4=-1758.797607421875 energy_gomace_l1_4=-1758.9942626953125 energy_gomace_l2_4=-1758.60498046875 energy_painn_1=-1757.2193603515625 energy_painn_2=-1760.199951171875 energy_painn_3=-1757.025390625 energy_painn_4=-1757.3524169921875 energy_tensornet_1=-1757.5880126953125 energy_tensornet_2=-1757.596435546875 energy_tensornet_3=-1757.9580078125 energy_tensornet_4=-1756.831298828125 energy_schnet_1=-1756.637939453125 energy_schnet_2=-1754.430419921875 energy_schnet_3=-1758.3507080078125 energy_schnet_4=-1758.9658203125 energy_nequip_1=-1758.911376953125 energy_nequip_2=-1758.6749267578125 energy_nequip_3=-1759.1641845703125 energy_nequip_4=-1758.78955078125 pbc="T T T"
H        9.71300000       8.92320000      10.23288000      -0.60156000       1.24907000      -0.88360000      -0.72663295       0.71636528      -0.55464625      -0.96231014       0.21182591      -0.75568944      -0.50889778       1.29722166      -0.88336802      -0.78927755       1.17536962      -0.85997242      -0.66430825       0.89959139      -0.95729828      -0.97972041       0.89725715      -0.79980385      -0.86705965       1.20696735      -0.97069573      -0.84596592       1.08990073      -1.07652318      -0.66180384       1.55662346      -0.67080855      -0.79329467       0.96949667      -0.74713939      -0.80117965       0.88674629      -1.03599834      -0.67398071       1.01079690      -0.82073075      -0.69214189       1.22851419      -0.87640381      -0.51199877      -0.07473505      -0.43127191      -0.57782269       0.57071656      -0.33162129      -0.43704858       0.97429717      -0.39132458      -0.49010608       0.87975365      -0.44862550      -0.02116888       0.54410046      -0.86812848      -1.13038731       2.45896411      -0.78752142      -0.66360706       1.25389898      -0.89555120      -0.97431040       0.56673717      -1.14178610      -0.89136410       2.01766539      -0.29007319       0.79306531       1.71385908      -0.96522689       0.43872786       2.07119322      -0.57537502      -0.54268807       2.49270797       0.65641463      -0.50500631       1.43255579      -0.90630084      -0.89105022       0.72309279      -0.78544283      -0.70274615       1.18610239      -0.98594028      -0.60553557       0.94217384      -0.85544729
H        9.51686000      10.60212000       9.28036000      -1.16558000       0.15683000      -1.22331000      -1.28408003       0.73409891      -1.34733653      -1.50170279       0.45005023      -1.55837095      -1.17001045       0.26140565      -1.19929683      -1.35110784       0.31168082      -1.44392252      -1.29167068       0.26928079      -1.22586846      -1.37913775       0.26790655      -1.16374516      -1.56403375       0.13830364      -1.33340394      -1.31902432       0.11105859      -1.25708985      -1.16583133       0.35175151      -0.90643013      -1.48605776       0.41560400      -1.38232672      -1.34068012       0.09754427      -1.45612431      -1.26106095       0.21116138      -1.20117474      -1.23795295       0.26726365      -1.17235589      -1.34463704       1.02852714      -1.90373421      -1.29670894       1.17411530      -1.90156496      -0.78856915       0.24459556      -0.67928761      -1.57748389       0.91961968      -1.37469995      -0.26245889       0.42947727      -1.28024316      -1.11004555       0.18166971       0.41871744      -0.39116502      -0.50249577      -0.69457388      -1.35447931       0.41467369      -1.42615700      -1.34688604       0.00062490      -0.15432119      -0.20290744      -0.04231031      -1.17254925      -0.16060793       0.01270789      -0.29228568       1.10863519      -0.74258715       0.03421196      -1.12956333       0.39699811      -1.05739141      -1.61359572       0.35929042      -1.21361756      -1.35791421       0.16608438      -0.98573768      -1.24527144       0.39913890      -1.26296222
H        9.81392000      10.54650000      11.00324000       0.47454000      -0.56150000      -1.19124000       0.33821663      -0.14844555      -0.59676355       0.26669699      -0.13255441      -0.51773071       0.43278193      -0.55026227      -1.17449784       0.44208032      -0.54836434      -1.20115280       0.32103056      -0.52020556      -1.36867201       0.15109380      -0.36512017      -0.91746628       0.19526581      -0.54467487      -1.28358233       0.29050162      -0.64915574      -1.42898047       0.25478673      -0.69605327      -1.48573232       0.12981915      -0.34246206      -0.83642536       0.44360325      -0.37714532      -0.81004786       0.20772624      -0.43353283      -0.97805917       0.24313737      -0.60713542      -1.44888449      -0.04267519       0.13922609      -0.07698247      -0.27014542      -0.48787189      -0.98837894      -0.12941693      -0.41626960      -0.87456596      -0.32692069      -0.60794765      -1.43848085       0.66520357      -0.27695644      -1.08891547      -0.56040525      -0.62539208      -2.19445705       0.39458662      -0.52412963      -0.91438544       0.10059007      -0.32409644      -1.34246576      -1.04453087      -0.99202472      -1.28740263       0.98050129      -0.83205044      -1.53555179       0.50614899      -0.86412108      -1.72863591       0.53826225      -2.48273468      -1.32270992       0.46471220      -0.61339384      -1.61710119       0.06581374      -0.27520490      -0.87266982       0.28398800      -0.44804773      -1.34931719       0.22513798      -0.32316566      -1.07372296