15
Lattice="20.0 0.0 0.0 0.0 20.0 0.0 0.0 0.0 20.0" Properties=species:S:1:pos:R:3:castep_forces:R:3:gomace_forces:R:3:forces_gomace_l0_1:R:3:forces_gomace_l1_1:R:3:forces_gomace_l2_1:R:3:forces_gomace_l0_2:R:3:forces_gomace_l1_2:R:3:forces_gomace_l2_2:R:3:forces_gomace_l0_3:R:3:forces_gomace_l1_3:R:3:forces_gomace_l2_3:R:3:forces_gomace_l0_4:R:3:forces_gomace_l1_4:R:3:forces_gomace_l2_4:R:3:forces_painn_1:R:3:forces_painn_2:R:3:forces_painn_3:R:3:forces_painn_4:R:3:forces_tensornet_1:R:3:forces_tensornet_2:R:3:forces_tensornet_3:R:3:forces_tensornet_4:R:3:forces_schnet_1:R:3:forces_schnet_2:R:3:forces_schnet_3:R:3:forces_schnet_4:R:3:forces_nequip_1:R:3:forces_nequip_2:R:3:forces_nequip_3:R:3:forces_nequip_4:R:3 castep_energy=-1791.048999367 gomace_energy=-1790.37890625 energy_gomace_l0_1=-1790.5068359375 energy_gomace_l1_1=-1790.010498046875 energy_gomace_l2_1=-1789.473876953125 energy_gomace_l0_2=-1791.0125732421875 energy_gomace_l1_2=-1790.4962158203125 energy_gomace_l2_2=-1789.643798828125 energy_gomace_l0_3=-1790.6597900390625 energy_gomace_l1_3=-1790.24560546875 energy_gomace_l2_3=-1789.5740966796875 energy_gomace_l0_4=-1790.3436279296875 energy_gomace_l1_4=-1790.51123046875 energy_gomace_l2_4=-1789.8021240234375 energy_painn_1=-1789.76904296875 energy_painn_2=-1792.259521484375 energy_painn_3=-1789.43603515625 energy_painn_4=-1789.6875 energy_tensornet_1=-1788.938232421875 energy_tensornet_2=-1788.85302734375 energy_tensornet_3=-1789.560302734375 energy_tensornet_4=-1788.357177734375 energy_schnet_1=-1789.415283203125 energy_schnet_2=-1788.8201904296875 energy_schnet_3=-1791.3797607421875 energy_schnet_4=-1793.9232177734375 energy_nequip_1=-1790.4149169921875 energy_nequip_2=-1789.956787109375 energy_nequip_3=-1791.1329345703125 energy_nequip_4=-1790.656982421875 pbc="T T T"
H        9.10640000      10.34760000      10.58652000       0.98403000      -0.22301000      -0.08563000       0.86581194      -0.19289836      -0.04912484       1.16783071       0.00492932      -0.47857803       0.77598882      -0.05423377      -0.09268835       0.64724344      -0.26355225       0.10295588       1.29277039      -0.20575503      -0.53829062       0.52029586      -0.13319136      -0.02256204       0.64075261      -0.19908774       0.00423643       0.90124112      -0.21169025      -0.06229711       0.83312535      -0.47186226      -0.11530209       0.74872941      -0.12844743      -0.02830940       1.14370918      -0.15067691      -0.18431385       0.95546889      -0.12249100      -0.26481152       0.87470096      -0.14563587      -0.18507701       1.28727591      -0.40246159       0.07948199       0.97877026      -0.49042487      -0.61150318       0.91993958      -0.26977614       0.04119515       0.55097324      -0.15704814       0.20065397       1.25250626      -0.12015557      -0.13579440       1.81346500      -0.90931082      -1.24009490       0.72089958      -0.05361127       0.66772538       0.83629203      -0.13966975       0.21007043       1.33687961      -0.39364228      -1.08784378       1.66087770      -0.75960922      -0.87498558       1.21041918       0.18759009       0.10984659       2.40858483      -1.22391307      -1.47164702       0.98129952      -0.09877212      -0.12065435       0.88000017      -0.49175078       0.07862040       1.10031223      -0.17308220      -0.15719950       1.32341373       0.03931648      -0.27424791
H        9.74548000      10.12208000       8.91740000      -0.18819000       0.61707000       0.37626000      -0.14751607       0.53402501       0.29477260      -0.18251702       0.66627634       0.84130687      -0.55152929       0.60939914       0.22266391      -0.35253781       0.49409384       0.01624602      -0.11659459       0.67598045       0.84622920      -0.41350758       0.51812106       0.09904753      -0.47324878       0.68800884       0.24794832      -0.30934098       0.41262960       0.34902334      -0.36144641       0.44330466       0.25107723      -0.36416292       0.40235671       0.20635152      -0.03692538       0.41512626       0.43344909      -0.21560965       0.40250197       0.61409527      -0.39796931       0.61262083       0.30220771      -0.02300328       0.05193581       0.25069058      -0.43892765      -0.00697623       0.35222167      -0.46304300       0.22721204       0.01874453      -0.12576509       0.06113908       0.19655305      -0.00297637       0.43710870       0.66201693      -0.10713927      -0.14454567       2.10922909       0.26715150       0.10863329      -0.08442368      -0.27241090       0.58793491       0.41100845      -0.03705382       0.54231930       1.41919494       1.06825936       0.11023748       2.00117850       0.73670918       0.45695183       1.29433596       0.00483602       1.78701258       0.66672438      -0.27375355       0.75258255       0.28946444      -0.17789866       0.38365638       0.39051688      -0.22364867       0.46216339       0.93607461       0.10848869       0.31871372       0.92371380
H       11.52298000       7.61394000       8.79002000      -0.20669000       0.38897000       0.50707000      -0.47825971       0.48118210       0.50859720      -0.31504762       0.22699182       0.89144874      -0.23660837      -0.05904204       0.64145398      -0.46858734       0.09931734       0.14443457      -0.23512402       0.52980155       0.97514993      -0.36158052       0.00544855       0.42603362      -0.12930287       0.17341748       0.42507595      -0.38110662       0.36346862       0.61313558      -0.51702106       0.07113567       0.65377718      -0.29239130       0.00372397       0.31718409      -0.28449807       0.39925697       0.58571386      -0.29105210      -0.02759606       0.54907215      -0.29905221       0.17332436       0.49742153      -0.60436833       0.56000865       0.83113241      -0.55070996       0.23473567       0.81361997      -0.54665989       0.03666670       0.29506832      -0.49436703       0.02140279       0.41863528      -0.37746692       0.16242793       1.20389903      -0.29686376       0.43412125       1.91037273      -0.82102811       0.32871032      -0.03650139      -0.54609543       0.01748227       0.69098741      -0.30885583      -0.20220017       1.01600206      -0.26440924       2.15039611       2.96963024      -0.03230736       0.76091611       1.59400177      -0.41607216       2.43893576       2.90208626      -0.36818570       0.16866586       0.56922930      -0.66158450       0.20673487       0.51510572      -0.38808301       0.24030599       0.71529770      -0.21314958       0.67535239       0.99418992
H       11.84524000       7.47716000      10.53762000      -0.29589000      -0.83309000       0.58275000      -0.30603617      -0.98684514       0.93474597      -0.51008719      -1.04250240       0.23674341      -0.26893681      -1.11771774       0.51070726      -0.37741542      -1.19268918       0.93588823      -0.51809454      -0.77163899       0.22420025      -0.33321923      -0.95020461       0.55979919      -0.24183656      -1.01559711       0.52360308      -0.57880098      -1.16811490       0.55925584      -0.58434445      -1.24707913       0.51974094      -0.32824534      -1.22890878       0.72109365      -0.45556039      -0.77245581       0.48939145      -0.21370892      -1.00860548       0.39974102      -0.36131805      -1.02693641       0.63007587      -0.65757346      -0.80788732       0.46479300      -0.26437840      -1.27982521       0.57473564      -0.47307414      -0.96964252       0.45556042      -0.06110299      -0.84825277       0.62008095      -0.58326471      -0.68634748      -0.00647137      -0.99788427      -0.04570542      -0.98815751      -0.71392357      -0.63291645       1.13172674      -0.59230733      -1.14222586       0.68840796      -0.40315700      -0.57720727      -0.17294550      -0.41264313       1.18588495      -0.62320489      -0.66932875      -0.80458325      -0.25345105      -2.06183863      -1.74847174      -0.04937147      -0.34810403      -1.18130970       0.68660748      -0.61721456      -0.88362610       0.81346035      -0.38602620      -0.97830474       0.37270099      -0.26156044      -0.43094257       0.13140523
H       11.71942000      11.48100000       9.71302000      -0.55960000      -0.19324000       0.22017000      -0.48907295       0.08143064       0.10113400      -0.72398990      -0.01512039       0.30952004      -0.60056001       0.07559121       0.23699871      -0.59836107      -0.02578653       0.24758813      -0.42569190       0.14379016       0.25450772      -0.57599682      -0.09610443       0.16901627      -0.42221126       0.06734057       0.10171637      -0.45719829       0.11961130       0.11909392      -0.49596176      -0.00660597       0.10258458      -0.45830423      -0.09742793       0.35892630      -0.54173607      -0.06884435       0.21272907      -0.63882905       0.01255305       0.38613608      -0.47523326      -0.11334345       0.26106006      -0.20937876      -0.18712214      -0.02506003       0.23142806       0.05028920      -0.24549565      -0.33881605      -0.42489541       0.31696117      -0.12450233      -0.08175045       0.02209598      -0.32510978       0.31759492       0.74963433      -0.29529089       1.16930473       0.68544775      -0.83677119      -0.31803152       0.11305764      -0.34888262       0.57887506       0.01294982      -0.37082845      -0.03462279       0.74431193      -0.35401690      -1.04796994      -0.13704050      -0.41694856      -0.25243902       0.13246739       0.07367536      -5.00961542       1.46581972      -0.72258270      -0.34221321       0.61910200      -0.48867661      -0.04474670       0.05579022      -0.72985423      -0.03302117       0.44652462      -0.50331557      -0.31031951       0.57526267
H       11.41708000      10.64932000      11.36114000       0.65176000       0.41824000      -0.79281000       0.63958496       0.48298132      -0.37570941       0.38170889       0.59408426      -0.78574765       0.66790235       0.55888981      -0.51642686       0.42809930       0.57271528      -0.70143527       0.48849654       0.47596562      -0.58840513       0.47236475       0.26173839      -0.60375124       0.59061623       0.59321046      -0.44037193       0.59560716       0.49896085      -0.41719311       0.54764938       0.40829167      -0.55366182       0.50872535       0.71038449      -0.84771442       0.42422503       0.31703472      -0.70501721       0.37776273       0.41374406      -0.68590164       0.56524384       0.65231121      -0.67306221       0.34130302       0.49054366      -0.38388488       0.21489175       0.18402445      -0.28466934       0.40174064       0.74856269      -0.72035503       0.29361928       0.42949063      -0.65649813       0.49074972       1.03574359      -0.34315389       0.28029776       1.64820397      -1.03563762       0.49277204       0.11159621      -1.08610010       0.78950620       1.20391285      -0.68607116       0.31234890       0.91250533      -1.19982314       0.52026713      -0.87439150      -1.75420880      -0.10410613       0.62818265      -1.33391213       1.86938286      -0.78540647      -2.55510712       0.52211809       0.74442375      -1.13050115       0.35884240       0.28236961      -0.67699230       0.49006647       0.71594089      -0.82958412       0.64920640       0.66437650      -1.06706357
H       14.17302000      10.27946000       9.00992000      -0.45016000      -0.15747000      -0.03594000      -0.80836892       0.27855277       0.39803767      -0.45052052      -0.29147339       0.05800764      -0.33657688      -0.35267884       0.21160613      -0.45073980      -0.19326252       0.05224755      -0.47669870      -0.66390491       0.13982582      -0.09376401      -0.26122668      -0.07284889      -0.34579512      -0.20006983       0.01968911      -0.39595115      -0.12906481      -0.00512108      -0.12729445      -0.12712950       0.06707366      -0.35908705      -0.29352504       0.08758815      -0.41650152      -0.13266090       0.15969434      -0.28715411      -0.22695667       0.02776632      -0.27818644      -0.18217081      -0.03678688      -0.96118879      -0.79210222       0.45452356      -0.43407810      -0.63598400       0.11533421      -0.48868215      -0.67441058      -0.05951296      -0.33678314      -0.33267739       0.18624747      -0.39738306      -0.16306925       0.33752176      -0.21426046      -0.85059077      -0.10458428      -0.66797936      -0.16304854       0.46736759      -0.69743276      -0.33954298       0.47502077      -0.65887702      -1.88834751       0.14813349      -1.03910339      -1.18730104       0.75661874      -0.48900926      -0.59702349       0.71235669      -3.78451347      -2.73963881       1.83424675      -0.03107694       0.12310235      -0.37115219       0.02607742       0.20887053      -0.05707425      -0.34445259      -0.28714344      -0.03234318      -0.47475258      -0.48421586       0.11842510
H       13.88942000       8.46460000       8.74090000       0.36469000       0.29535000       0.47514000      -0.08540753      -0.15521097       0.55022603       0.38624996       0.52662981       0.54021895       0.52971774       0.41989076       0.61843759       0.41768792       0.24652800       0.54017013       0.48617816       0.77948213       0.65984851       0.64990115       0.37488914       0.39462253       0.42738318       0.18938270       0.42914635       0.47923103       0.38978693       0.41761523       0.61103857       0.22015321       0.49095801       0.46248096       0.28221616       0.51330656       0.36954778       0.28214800       0.58775806       0.49398768       0.35425612       0.44571584       0.50014591       0.31749243       0.41965163      -0.33811229       1.26716197       0.82202435       0.33656681       1.00526810       0.16849603       0.33260643       0.84079361      -0.00296903       0.14352940       0.69116020       0.26590168       0.04888214       0.52793401       0.36982775       0.34319934       0.89066058       0.11098024      -0.04736292       0.43985194       0.67411602       0.26615578       0.50780249       0.72726834       0.44047582       1.92502427       0.67075247      -1.10029507       1.80281472       2.03096437      -0.45636362       0.81756556       0.96763074      -1.54509830       2.86316848       2.19442582       0.58444303       0.11431777      -0.04601920       0.60020584      -0.05460352       0.30809474       0.32563016       0.45652479       0.49800149       0.44901848       0.59302413       0.45511651
C       10.00000000      10.00000000      10.00000000      -1.62225000      -0.70883000      -2.55773000      -2.16316867      -0.86940622      -2.43294811      -2.29045486      -1.83209062      -2.25379610      -1.67306530      -1.49664330      -2.38926363      -1.27756739      -0.55015463      -2.18353868      -1.87634075      -0.88996601      -2.12517571      -1.48343444      -0.69444519      -1.96380973      -1.17193043      -0.26544711      -2.30790329      -1.65295744      -1.14937687      -2.29562473      -1.42388511      -1.00429797      -2.20150661      -2.14236116      -0.65395737      -2.12017465      -2.07899356      -0.38061398      -1.93451583      -1.43700886      -0.97238070      -2.21412849      -1.81191373      -0.96270609      -2.16325021      -1.08204579       0.85577250      -1.47534323      -0.61196494      -0.09161419      -0.40841162      -2.00200677       0.88861942      -1.70103598      -1.92767799      -0.02955103      -1.43160486      -1.35087025      -0.52591890      -1.57891726      -1.61994874       0.21818399      -1.31047118      -0.99160838      -0.10419387      -1.59457564      -1.96438980      -0.39682442      -2.73724365      -2.23954010       1.24721205      -0.92686641      -1.21431684       1.21462440      -0.32046482       1.12081623       1.31844282      -1.48257947      -1.34464765       0.69598508      -1.17095602      -1.27904224      -1.06244421      -2.24482155      -1.52773058      -0.25151098      -2.11384988      -2.13228846      -2.23360443      -2.80832720      -2.52514029      -1.52880383      -2.40755749
C       11.44134000       8.13624000       9.78434000      -1.45733000      -0.98346000      -0.80874000      -0.85887188      -0.74035656      -1.09201646      -1.01072502      -1.26100850      -0.60594535      -1.96996212      -0.28386289      -0.59498918      -0.45038626      -0.39628747      -0.87666678      -1.29371560      -1.43752027      -0.71381640      -1.42716873      -0.32815042      -0.64127916      -0.67869735      -0.48609221      -0.68542147      -1.09041369      -0.51051968      -0.46201831      -1.37521482      -0.11393249      -0.53906041      -0.75096047      -0.63731831      -0.90498400      -0.62449795      -1.32086611      -0.77643371      -1.19087291      -0.49850947      -0.70838261      -0.55109680      -0.29232183      -0.83521354      -0.25472271      -1.40402687      -0.91623366      -1.17211306      -0.14332920      -0.77131242       0.87092280      -1.56979585      -0.78027648      -0.86360776      -1.29898071      -0.93714857      -0.90379465      -0.26109591      -0.89330876      -0.45313796      -0.71299613      -0.07168269       0.26909384      -0.55148900      -0.73205984      -1.91345334      -1.41334176      -1.22594965       0.67748725      -0.99360573      -0.95143145       0.16022283      -1.64616239      -1.72922909       1.20397055      -1.64246607      -1.17834401       0.22083737       0.00368273      -0.15323591      -1.29289579      -0.30389243      -0.80693001      -0.46969026      -1.11025894      -0.99764276      -1.93770385      -0.97677553      -0.43709615      -1.21424127      -1.87165451      -0.62932670
C       12.29754000       9.32276000       9.87088000      -0.95859000       3.05394000       1.11914000      -0.90431243       4.04214239       0.86192310      -1.05308664       3.37621307       0.86323988      -0.81557798       3.52147222       1.11056328      -1.42514217       3.44530201       1.48187208      -1.25010860       3.29770136       0.82673812      -0.73906577       2.75587416       1.22446072      -1.64114499       2.94329596       1.40311944      -1.15140533       3.36542511       0.71998239      -0.69878334       2.98518777       0.81890017      -1.39144289       3.22129464       1.29550469      -0.78827083       3.03736591       0.53723443      -1.40472364       3.13939667       1.34402227      -1.79446411       3.02120781       1.25636458      -0.21962225       2.99280405       0.68176883      -1.30210102       2.62375355       0.81524622      -0.35899049       3.38963723       1.10443509      -0.35598433       3.41725850       0.99154627      -0.76694572       2.85948014       1.20060420      -0.99321580       2.22366333       0.77052498      -1.22135234       3.24199724       1.31868815      -0.93046093       3.78998137       0.79568958       1.72012746       1.35154855       0.70684189       1.53532863       0.21315229       0.45380074       1.31982636       2.82964659       1.02905416       4.39577007       5.80297613      -1.69728780      -1.05403721       3.64821243       1.62654102      -1.49132419       3.38788795       1.47559118      -1.50839233       3.21489096       1.21931362      -0.98907447       3.62233424       1.56539857
C       11.37346000      10.57162000      10.23738000       0.66559000      -1.76266000       1.39093000       1.26945281      -2.51072025       0.98762500       1.34772801      -1.32832193       1.39695144       1.37574637      -2.16461563       1.28248668       1.49102330      -2.13092256       1.01924586       0.50880098      -1.98193693       0.77743149       1.39942777      -1.68044376       1.06377816       0.90306455      -2.44210720       0.86881351       0.90263009      -2.06089878       0.99582571       0.90859079      -1.57626355       1.30895138       1.59608448      -2.01326299       1.23602188       0.77362680      -1.58498931       1.00681996       1.37201095      -1.50060201       0.95389211       1.41513288      -2.04705644       1.13737595      -0.55214244      -2.64721417       0.68540895      -0.07590142      -2.30935669       0.45199448       1.14214778      -2.13417840       1.19929826       0.98118383      -2.34646130       1.01824832      -0.34626067      -4.23074532      -0.51333445       0.36893263      -5.35624552       0.48241338       0.62543792      -2.69773698       0.76667601      -0.41772527      -4.12674761       1.61714244      -0.21830285      -1.82987654       0.74713647      -1.24956822      -1.18347442       0.04929516      -1.04960430      -4.41960096       0.43099269      -1.17789650      -1.34014821      -0.50618315       0.94296801      -1.79977298       1.18861055       0.97134686      -1.56082118       1.09762251       1.38975978      -1.60404301       1.35149407       0.89670563      -1.41612649       1.21884871
C       13.63518000       9.36988000       9.34484000       1.09166000       0.11044000      -2.14419000       2.20722914      -0.13412330      -2.71109152       1.15955234      -0.15390667      -2.05111074       0.50367904       0.10833684      -2.68265748       0.77409530       0.22986442      -2.59031630       0.94623381       0.12585683      -2.33889318      -0.04117137       0.15900803      -1.77607703       0.89658940       0.32187229      -2.29504776       0.62237555      -0.12198912      -1.78777099       0.11921924       0.19148782      -2.01372862       0.76208872       0.38215601      -2.54875469       0.17964441      -0.03220419      -1.64315593       0.63525987      -0.02240187      -1.83343112       0.72081226       0.15128548      -2.56718946       1.09756851      -0.55943561      -1.85208559       0.23177838      -0.48331106       0.43271905      -0.18898568      -0.56321883      -0.59482586       0.47131771      -0.54367965      -1.74918175       0.57853413      -0.52129710      -2.06521749       0.74798191       0.18882211      -2.10235000       0.99259770      -0.26297930      -2.83697033       1.19368243      -0.02652302      -2.14592791      -0.74520683      -0.30470708       1.00016117       0.29146254      -0.09600750      -1.21384573      -1.57443643      -0.21795586       0.61606622      -0.44363451      -0.09958502      -1.31009734       0.60539997      -0.24922410      -1.30087006       1.13567173       0.21395969      -3.01227093       1.01415586      -0.11825556      -1.64485574       0.86218977      -0.26840633      -1.77064192
O       10.01750000       8.49430000      10.04984000       2.01141000       0.82037000       0.65043000       0.98815626       0.54502171       0.70911592       2.36192036       1.48250687       0.41572419       2.53006005       1.10717845       0.28331897       1.64378870       0.72113830       0.58292574       2.01538706       0.82688969       0.58151251       2.47328067       0.75784278       0.36640891       1.52189100       0.52487773       0.59866732       2.25925398       1.14076710       0.32990050       2.03085399       0.98393530       0.26510102       1.86104691       0.95413899       0.46268189       1.83270907       0.85022652       0.49823493       1.68000972       0.80672377       0.40345204       1.74483120       0.78011525       0.47048536       1.90331805       0.76858217      -0.08797016       2.61169577       1.36700261      -0.35313538       1.51688087       0.63786632       0.18708891       2.06596160       1.24588096      -0.08769817       2.63769937       1.39321852       0.06741370       1.89277792       1.63894641      -0.59172606       2.08208990       1.11694169      -0.08237159       3.35476065       1.59570658       0.30361086       0.69614303       0.16162515       0.18535787       1.23609352       0.44954023      -0.37009859       0.75025076       0.46484229       0.29887378       1.84699547      -0.90901589       0.57583499       1.80563235       0.32764500       0.39867187       1.73569548       0.72176290       0.40868011       3.53253412       2.17650366       0.04170573       2.14441061       1.31116998       0.09937403
O       13.47834000       9.24576000      10.72678000      -0.03043000      -0.84263000       1.10316000       0.27077937      -0.85577488       1.31471312      -0.26856124      -0.95320767       0.62201726       0.06972224      -0.87196422       1.15778887      -0.00120063      -1.05630386       1.22838259       0.45450160      -0.90474558       1.01913762      -0.04636188      -0.68915582       0.77716124       0.12387049      -0.89300460       1.10672832       0.25683531      -0.93899524       0.92619294       0.53347367      -0.75632548       0.94509554       0.14779937      -0.90342283       1.25127840       0.50352103      -0.85784662       0.73241127       0.16445911      -0.74963301       0.58276248       0.14836720      -0.93818653       1.48593712       0.27269253      -0.18655840       0.47075355       0.24504381      -0.02425200      -1.04983950      -0.32397968      -0.16344087       0.24062359      -0.21679434      -0.22793004       0.94216877       0.04570049      -0.22487846       0.94527996      -0.46891326      -0.39251235       1.37573600      -0.15001589      -0.56372368       1.31364489       1.24276125      -0.69682074       0.86303645      -0.20164007       0.08397515      -2.29898167      -0.83815837      -0.33173424      -1.23840928      -1.54988778       0.46993190      -2.93734026      -0.04638073       0.26403525      -0.72525245      -0.07218283      -0.84132028       0.64272165      -0.27372047      -1.00792384       1.71434820      -0.20200923      -0.86209911       0.32829320      -0.25219905      -0.91381830       0.06710276
15
Lattice="20.0 0.0 0.0 0.0 20.0 0.0 0.0 0.0 20.0" Properties=species:S:1:pos:R:3:castep_forces:R:3:gomace_forces:R:3:forces_gomace_l0_1:R:3:forces_gomace_l1_1:R:3:forces_gomace_l2_1:R:3:forces_gomace_l0_2:R:3:forces_gomace_l1_2:R:3:forces_gomace_l2_2:R:3:forces_gomace_l0_3:R:3:forces_gomace_l1_3:R:3:forces_gomace_l2_3:R:3:forces_gomace_l0_4:R:3:forces_gomace_l1_4:R:3:forces_gomace_l2_4:R:3:forces_painn_1:R:3:forces_painn_2:R:3:forces_painn_3:R:3:forces_painn_4:R:3:forces_tensornet_1:R:3:forces_tensornet_2:R:3:forces_tensornet_3:R:3:forces_tensornet_4:R:3:forces_schnet_1:R:3:forces_schnet_2:R:3:forces_schnet_3:R:3:forces_schnet_4:R:3:forces_nequip_1:R:3:forces_nequip_2:R:3:forces_nequip_3:R:3:forces_nequip_4:R:3 castep_energy=-1791.18235494 gomace_energy=-1790.8341064453125 energy_gomace_l0_1=-1790.290283203125 energy_gomace_l1_1=-1789.8076171875 energy_gomace_l2_1=-1790.1329345703125 energy_gomace_l0_2=-1790.851318359375 energy_gomace_l1_2=-1791.076416015625 energy_gomace_l2_2=-1790.300537109375 energy_gomace_l0_3=-1790.3272705078125 energy_gomace_l1_3=-1790.41064453125 energy_gomace_l2_3=-1790.1513671875 energy_gomace_l0_4=-1789.947509765625 energy_gomace_l1_4=-1790.4150390625 energy_gomace_l2_4=-1790.31201171875 energy_painn_1=-1790.021240234375 energy_painn_2=-1793.016357421875 energy_painn_3=-1789.76171875 energy_painn_4=-1790.4765625 energy_tensornet_1=-1790.0574951171875 energy_tensornet_2=-1789.40234375 energy_tensornet_3=-1790.0870361328125 energy_tensornet_4=-1789.3062744140625 energy_schnet_1=-1790.4964599609375 energy_schnet_2=-1789.3817138671875 energy_schnet_3=-1792.886474609375 energy_schnet_4=-1793.9647216796875 energy_nequip_1=-1790.863525390625 energy_nequip_2=-1790.040283203125 energy_nequip_3=-1791.1641845703125 energy_nequip_4=-1790.5308837890625 pbc="T T T"
H       10.57236000       9.50224000       9.21618000       0.08251000       0.09936000      -0.64424000       0.36908677      -0.09231980      -1.21489024      -0.02660167       0.00862531      -0.84895229       0.36294636      -0.29576218      -1.19475126      -0.02893573       0.05306607      -0.65873623       0.17266652      -0.06852682      -0.95384884       0.24624135       0.07240089      -0.64371157       0.14758612       0.09130833      -0.71452576       0.23899516      -0.20044199      -0.95956910       0.07248707      -0.12871850      -1.04236245       0.14868450      -0.07325684      -0.65298092       0.07129849      -0.06439734      -1.03803301       0.10541635      -0.15490910      -0.97720301       0.12542270       0.08466058      -0.61792469       0.26582110       0.16163211      -0.30402222       0.21269691       0.17659128      -0.12948863       0.36677352       0.09691551      -0.86557889       0.69748092      -0.00918329      -0.73690355       0.45789170       0.05831693      -0.45230156       1.23120677      -0.27776134      -0.26134533      -0.41137224       0.49204594      -0.70229840       0.03255421      -0.33008429      -1.15000618       0.51967621       0.01167464      -0.56560588      -0.47114867       0.76085067      -0.36697423      -0.00156963       0.02152646       0.12757218      -1.36825407       0.49587011      -0.82720351       0.26311356       0.11577546      -0.53503144       0.09751147       0.18720227      -0.53571677       0.02416903       0.33566049      -0.32845986       0.07007247      -0.04973334      -0.97711819