19
Lattice="20.0 0.0 0.0 0.0 20.0 0.0 0.0 0.0 20.0" Properties=species:S:1:pos:R:3:castep_forces:R:3:gomace_forces:R:3:forces_gomace_l0_1:R:3:forces_gomace_l1_1:R:3:forces_gomace_l2_1:R:3:forces_gomace_l0_2:R:3:forces_gomace_l1_2:R:3:forces_gomace_l2_2:R:3:forces_gomace_l0_3:R:3:forces_gomace_l1_3:R:3:forces_gomace_l2_3:R:3:forces_gomace_l0_4:R:3:forces_gomace_l1_4:R:3:forces_gomace_l2_4:R:3:forces_painn_1:R:3:forces_painn_2:R:3:forces_painn_3:R:3:forces_painn_4:R:3:forces_tensornet_1:R:3:forces_tensornet_2:R:3:forces_tensornet_3:R:3:forces_tensornet_4:R:3:forces_schnet_1:R:3:forces_schnet_2:R:3:forces_schnet_3:R:3:forces_schnet_4:R:3:forces_nequip_1:R:3:forces_nequip_2:R:3:forces_nequip_3:R:3:forces_nequip_4:R:3 castep_energy=-1575.716245132 gomace_energy=-1574.47412109375 energy_gomace_l0_1=-1574.590576171875 energy_gomace_l1_1=-1573.3577880859375 energy_gomace_l2_1=-1573.705078125 energy_gomace_l0_2=-1574.95556640625 energy_gomace_l1_2=-1574.982177734375 energy_gomace_l2_2=-1573.67041015625 energy_gomace_l0_3=-1574.8529052734375 energy_gomace_l1_3=-1574.236328125 energy_gomace_l2_3=-1573.494384765625 energy_gomace_l0_4=-1574.288330078125 energy_gomace_l1_4=-1574.22216796875 energy_gomace_l2_4=-1573.9046630859375 energy_painn_1=-1574.53466796875 energy_painn_2=-1578.4384765625 energy_painn_3=-1573.199951171875 energy_painn_4=-1574.406005859375 energy_tensornet_1=-1573.4405517578125 energy_tensornet_2=-1572.683349609375 energy_tensornet_3=-1573.9112548828125 energy_tensornet_4=-1571.74951171875 energy_schnet_1=-1574.2520751953125 energy_schnet_2=-1575.369140625 energy_schnet_3=-1576.8609619140625 energy_schnet_4=-1582.549072265625 energy_nequip_1=-1575.2393798828125 energy_nequip_2=-1573.4757080078125 energy_nequip_3=-1575.5521240234375 energy_nequip_4=-1574.7572021484375 pbc="T T T"
H        9.87948000      10.32550000      11.01756000      -0.47628000       0.27648000       0.75038000      -0.48660541       0.42438996       1.44820118      -0.22097220       0.22032599       0.72876710      -0.43589109       0.33460808       1.53165305      -0.41353437       0.36881587       1.08656740      -0.34659731       0.14347696       1.07964301      -0.25029144       0.33649069       1.12221611      -0.67223239       0.39538434       1.16170013      -0.40658230       0.16731498       1.13908696      -0.24949598       0.35931543       1.13657451      -0.67761081       0.45198852       1.16765881      -0.51439106       0.21291344       1.19428813      -0.17711878       0.28052467       0.92950308      -0.70416397       0.37391084       0.89750659      -0.46943337       0.45634615       1.21165323      -0.40003839       0.14038530       0.80004334      -0.93473548       0.43382192       1.29640269      -0.68184114       0.41769385       1.22506499      -0.48252493       0.45125625       0.77880764      -1.40576077       0.97163332      -0.44564736      -0.17152381      -0.16499972       0.37115595      -0.63759410       0.47660697       0.79990673      -0.67699367       0.64415443       0.78277385       0.04201242      -0.84840161       0.47269022      -0.41106111       0.05128109       0.16774797      -0.03263830      -2.00815582       0.03561074      -0.62744844       0.39325017       0.84148878      -0.26451689       0.20052187       0.78492844      -0.41993505       0.02221037       0.34654471      -0.70461607       0.09761253       1.15768754
H        9.21992000      10.44952000       9.40300000      -0.45397000       0.04536000      -0.41665000      -0.57457387       0.09194086      -0.71035439      -0.35271460      -0.09773342      -0.54046512      -0.88764358       0.14480817      -0.89543372      -0.42483747       0.01416091      -0.61937892      -0.48101914       0.05290471      -0.60529864      -0.68080354       0.10576035      -0.71410179      -0.47927058       0.15586032      -0.52991021      -0.57962143      -0.07428855      -0.68102562      -0.56099510      -0.07446599      -0.86423177      -0.52899337       0.11367568      -0.58121538      -0.43836302      -0.00044993      -0.66611487      -0.53253710      -0.08534694      -0.68408835      -0.50757527      -0.01214046      -0.38792160      -0.16540584      -0.11112129      -0.39358690      -0.32972747       0.07698658      -0.43034351      -0.56373000      -0.22162838      -0.63723952      -0.88297611       0.14066054      -0.85680193      -0.70073569      -0.34526169      -0.12569046      -1.52222323       0.58984560      -0.14352937      -0.37626377      -0.49826187      -0.37947357      -1.17527688       0.05396509      -0.93959588      -0.61478877       0.39012134      -0.26333213       0.68266094      -0.43285823       0.05570972       0.23061967      -0.17379129       0.22104490       2.96479630      -2.18650103       0.47997499      -0.44570625      -0.03747668      -0.29412949      -0.34945077      -0.12419704      -0.50529200      -0.27664107      -0.32691908      -0.25031009      -0.61395001      -0.16594145      -0.39128128
H        9.64738000       8.07796000       9.07664000       0.60117000      -0.48075000      -0.13582000       0.39704028      -0.55226058      -0.46481982       0.78275192      -0.30733305       0.12124905       0.33850089      -0.47488990      -0.27793127       0.45833138      -0.44819149      -0.26430285       0.79496759      -0.38665155      -0.38281631       0.69417423      -0.33329383      -0.26867709       0.42196077      -0.47457111      -0.29406095       0.53409314      -0.52952057      -0.51563418       0.66051602      -0.28563851      -0.44009009       0.32440811      -0.48234615      -0.18193147       0.68991715      -0.41204333      -0.32400709       0.57984662      -0.35485625      -0.13337964       0.43025726      -0.33044115      -0.07177672       0.33645973      -0.78852957      -0.43981314       0.13139004      -0.37021083       0.02091107      -0.40366572      -0.75997883      -0.55299854      -0.08778444      -0.67006409      -0.82667744       0.11635309      -0.54221767      -0.35624290      -0.16385719      -0.68331939       1.00988567       0.62019420      -0.15291445      -0.13062364       0.58504498      -0.56808054      -0.13422790       0.13983077      -0.15336406       1.16231930       1.23069835       1.09578931       0.87189114       0.41392636       0.03176570       0.03223109       1.94108236       1.45482290       4.48321009       0.48421595      -0.47850677       0.07639179       0.58590984      -0.48377138      -0.47224489       0.68161082      -0.26607063       0.12959605       0.39517838      -0.50961751      -0.21059725
H        9.15912000       8.21718000      10.83110000       1.73222000       0.23528000      -1.75136000       1.61439586       0.08939180      -1.86654508       1.82015431       0.09510288      -1.68913817       1.54793155       0.13996986      -1.41994226       1.80848336       0.22031447      -1.69195354       2.31779623       0.42086950      -1.95549095       1.85756588       0.28834561      -1.61415720       1.66265535       0.21903989      -1.54823685       1.96139073       0.30324209      -1.61953557       2.01841187       0.28639197      -1.59777021       1.53874564       0.08089643      -1.58256352       1.84671390       0.29207519      -1.46995676       1.68364358       0.15709619      -1.52210903       1.92875934       0.06162956      -2.04045200       1.71184134       0.04503835      -1.45462537       2.50009608       0.40994200      -2.43815923       1.22011983      -0.24370679      -1.30546236       1.31682801      -0.16685905      -1.11573994       2.46438265       0.08459985      -2.56429911       1.57063615      -0.42297682      -2.38226891       2.01995683       0.01112640      -1.74537051       1.09047103      -0.58313990      -1.19423270       2.07981968       0.06822905      -3.05049753       2.31340647       1.26053309      -1.10060644       0.99566531       0.44794744      -1.20062113       5.15713406       2.76752448      -3.02313209       1.78851092       0.19499648      -1.87639272       1.71525300       0.22923583      -1.23098707       1.90021157       0.37372267      -1.67621994       2.24430919       0.43652543      -2.08761549
H       11.19532000       6.82588000      10.87064000      -0.04903000       0.72237000      -0.30319000      -0.23743260       0.21467781      -0.22797155       0.00667278       1.14964247      -0.39694083      -0.23215695       0.34966198      -0.27689642      -0.08311553       0.68690014      -0.27591160      -0.28789851       0.63672692      -0.62902558      -0.22252271       0.54648185      -0.41699481      -0.01917798       0.38068524      -0.11556952      -0.27100185       0.33640376      -0.55261171      -0.17191294       0.58621407      -0.48148710      -0.01314051       0.63653916      -0.18316124      -0.14121079       0.84528702      -0.29529431      -0.23287725       0.62232882      -0.33337715      -0.01622137       0.86913353      -0.19049245      -0.33903024       0.78380668      -0.24579087      -0.15433361       1.10108685       0.07682019      -0.35538512       0.57529265       0.13697863      -0.38685954       0.40364605      -0.18808070      -0.18054521       0.30606693      -0.25971207       0.07154186       1.47699440       0.20523942      -0.21430203       0.78203815      -0.59901369      -0.49350664       0.55432647      -0.21644147       0.16275308       1.11320353       0.42713451       0.59531367       3.53848529      -1.99251163       0.02665874       0.29530525      -0.07864702       1.44132090       5.94366312      -2.05410314      -0.07721937       0.89886922      -0.25992411      -0.32580882       0.49320775      -0.46583813      -0.15207559       1.08497560      -0.41631162      -0.16545236       1.06832957      -0.35204232
H       11.82580000       8.41362000      11.51502000      -1.80861000      -0.70368000      -1.20987000      -1.73496306      -0.70143366      -0.85493213      -1.73075712      -0.64686120      -1.60456920      -1.61469674      -0.54988730      -0.84372944      -1.85401022      -0.70223272      -1.17500508      -1.89570761      -0.56518888      -1.55652320      -1.74313974      -0.67452359      -1.05578423      -1.69741106      -0.58823681      -1.06571460      -1.63657022      -0.15784806      -1.41657948      -1.60534918      -0.33495021      -1.14207840      -1.84176970      -0.61762178      -1.13620245      -1.67860126      -0.55252600      -1.26489985      -1.69856834      -0.75216931      -1.14847851      -1.91681814      -0.79190552      -1.34571838      -1.46421576      -0.37931657      -1.00248778      -1.63457561      -0.86538589      -1.19662666      -1.47227275      -0.89100432       0.04535064      -1.08084393      -0.67858315      -0.40592217      -2.08275318      -0.68566400      -1.48436677      -2.45093870      -1.68285942      -0.97812849      -1.86122441      -0.00171810      -1.25793266      -2.26424837      -0.81452101      -1.25372696      -2.10383701      -2.12923193      -1.50710797      -1.29448056      -1.55650640      -2.43919444      -1.52767694      -1.31467998      -0.66237211      -1.54047000      -1.90592635      -2.46209431      -2.05219555      -0.79403985      -1.15657091      -1.60341263      -0.34585661      -1.24587560      -1.84647441      -0.86055964      -1.46258461      -1.94621527      -0.62851357      -1.18310118
H       12.15626000       8.11170000       8.51588000       0.41932000      -0.44440000       1.04754000       0.38505676      -0.25392091       0.67736197       0.72374290      -0.59934306       1.52666330       0.43921471      -0.32848513       0.58952010       0.41773027      -0.34219161       1.05816984       0.24680780      -0.21107565       1.20177948       0.33872458      -0.22929615       0.98383415       0.38259155      -0.47323430       0.71017414       0.28357843      -0.20359018       1.02595043       0.37893707      -0.24693108       0.81523979       0.45188689      -0.47719842       0.91009438       0.42880309      -0.23564823       1.15879130       0.47075433      -0.37496585       1.02742100       0.53686810      -0.50032389       1.20749617       0.34909219      -0.33030748       0.79783487       0.61916232      -0.28528947       0.93128467       0.72818625      -0.62114263       0.31075087       0.55666202      -0.41545740       0.33016708       0.53959465      -0.53744608       0.85608566       1.32731915      -1.92412043       1.11858392       0.30133766      -0.02370064       1.30434155       0.58101922      -0.70506549       1.82729983       0.78578913      -0.85137379       0.52688336       0.44885698       0.23910275       2.28834558      -0.09784704       0.13184875      -0.57651377       1.20337605      -1.08230233       5.20273781       0.54541290      -0.45600706       1.40355206       0.36668107      -0.17428559       0.84668434       0.63287312      -0.53616613       1.29465675       0.44978565      -0.46451551       1.17840600
H       13.15066000       6.99272000       9.58960000      -0.35554000       1.42395000       0.09895000      -0.01314616       1.32972002       0.11668977      -0.42604589       1.80489707       0.13036057      -0.12504193       1.20456648       0.33950126      -0.41736680       1.52772987       0.15057251      -0.10710531       1.44515002       0.32715052      -0.20776092       1.25878799       0.17505918      -0.42096195       1.28989458       0.04952171      -0.17272249       1.29473686       0.46406898      -0.28658009       1.33930159       0.49907714      -0.41686690       1.32467353       0.05001178      -0.26812601       1.48621964       0.33692166      -0.31043380       1.29652989       0.23316474      -0.60838592       1.53031421      -0.00229144      -0.77005637       1.54125822       0.16769332      -0.48616195       0.96373570       0.05870666      -0.71605051       1.38999557       0.03841461      -0.41615194       1.02083337       0.12749989       0.09905991       1.10373831       0.08319885       0.47093314      -0.01751387      -0.81543231      -0.30136135       1.26845765       0.34491900       0.35346240       0.97654027       0.54763269      -0.60201436       0.76560426      -0.45824009      -1.06261015       0.96388578       0.78906763       0.72037613      -0.68447828       0.41266462      -3.95297337       3.14739728       0.15006167      -0.47709787       1.59836531      -0.00987983      -0.21846303       1.17342734       0.36850628      -0.52498192       1.56475925       0.16313168      -0.55558968       1.57644224       0.07944487
H       13.72070000       9.92898000       9.03954000      -0.23898000      -0.89877000       0.82027000      -0.22170764      -0.95793045       0.83804476      -0.21463092      -1.26192439       1.35793972       0.06923059      -0.64157701       0.63471729      -0.29794568      -0.77451134       0.67997754      -0.21978085      -1.12671304       1.14473510       0.06931812      -0.66006517       0.76679945      -0.09625154      -0.85268348       0.68605024      -0.33803961      -1.01907480       1.00561559      -0.01337202      -0.82604164       0.83680099      -0.18926542      -0.87805629       0.85631800      -0.19396822      -0.96843547       0.84889328       0.12511215      -0.98167312       0.72492319      -0.30221093      -0.99940622       1.06733298      -0.63178748      -0.62428916       1.18578815      -0.51307344      -0.51420677       0.91277200      -0.12052642      -0.40945947       0.58602434      -0.31582797      -0.05761084       0.49750155      -0.08082798      -1.13441193       0.95987487      -0.59761494      -1.59492302       2.43720579      -0.35168916      -0.69353390       0.26521361       0.49954030      -0.99324936       0.32891759       0.54218483      -1.15234578       1.72373438      -1.05821443      -0.18078971       0.07952833      -0.81037325      -0.20357394      -0.21597552      -1.27876282      -1.14148200       2.48535752      -0.09273022      -1.08488405       0.72225976      -0.08925968      -0.78887326       0.57999390      -0.22417808      -0.99029982       1.04009390      -0.39710152      -1.37602055       1.49187720
H       14.19958000       9.06892000      10.60828000      -0.60125000       0.55749000      -0.16869000      -0.38852477       0.35526481      -0.17251274      -0.99237078       0.63060760      -0.72739822      -0.35796690       0.68083882      -0.15148026      -0.43276933       0.52540004      -0.03580448      -0.76152474       0.57488698      -0.48259872      -0.19978541       0.64710176       0.06578612      -0.26056069       0.46578735      -0.03108042      -0.79464608       0.49526182      -0.20592904      -0.46531695       0.68910253       0.10106710      -0.38650861       0.59189874      -0.14595371      -0.53226924       0.47350055      -0.29488561      -0.55415392       0.56269193      -0.13163900      -0.56836808       0.58428371      -0.23094967      -0.78113687       0.48836583      -0.16456971      -0.37687641       0.45084488      -0.16430965      -0.18967208       0.63040519      -0.14359936      -0.12790561       0.47198987       0.02961478      -0.45949364       0.54399574      -0.44565827      -1.85762691       1.23926413      -1.42034769      -0.59862185       0.41655901       0.48343140      -0.11817455       0.41433650       0.41303846      -0.06480420       0.99084353      -1.01383686      -2.16552234      -0.08246350      -0.93344486      -0.51154315      -0.41000429       0.28297299      -4.54710770       0.97939360      -3.38313508      -0.63721299       0.63539422      -0.33038589      -0.66485155       0.59795815       0.09163785      -0.80722225       0.66716951      -0.22162133      -0.78292388       0.61757767      -0.76622885
H       11.73780000      10.70290000       8.69902000       0.91282000      -0.66359000      -2.15861000       1.00788212      -0.68285704      -2.44409370       0.59664971      -0.69611657      -1.47913742       1.29624271      -0.58207929      -2.34568357       0.97871107      -0.79865563      -2.49653912       0.74994951      -0.89514083      -1.99295425       1.02654433      -0.41075373      -2.24668336       0.94929433      -0.66368580      -2.38022804       0.82351989      -1.00186491      -1.67617130       0.86488450      -0.44529000      -2.33853960       1.04948640      -0.68935823      -2.37789917       0.77390760      -0.98866922      -1.96074939       0.60255224      -0.47163463      -2.17245173       0.79004014      -0.62026131      -2.19364762       0.36008456      -0.70243466      -1.82622600       0.59822094      -0.47306290      -2.28025842       0.94883287      -0.50161314      -3.26088452       0.91832453      -0.42187005      -2.94380045       0.01921082      -0.03770772      -1.22970510       0.28865537       0.50619769      -0.45141435       0.23112097      -1.27706158      -1.49557471      -0.20436797       0.13481385      -2.10687447       0.17534831       0.18910190      -1.41211736       0.66889858      -0.08859921      -0.17624724       0.51441926      -0.61263317      -2.38805723      -0.29683012      -2.69295263       1.29009974       0.41404074      -0.66646624      -1.96547961       0.78876966      -0.43463084      -2.39884877       0.74624169      -0.48714945      -1.96939206       0.42704731      -0.51778227      -1.71308029
H       11.52354000      11.84052000       9.92240000      -1.05965000       0.58562000       0.09134000      -1.02857685       0.80223894      -0.00024977      -1.15147448       0.24051124       0.18446526      -0.82361227       0.96036881       0.24753608      -1.05119908       1.02586794       0.21145493      -1.39213085       0.78978366      -0.03797056      -0.78860515       1.11966896      -0.04407722      -0.83340931       0.78919435       0.07928690      -1.14328718       0.29029828       0.42082354      -0.66890520       0.98045707       0.20115066      -0.93076706       0.79713655       0.06765825      -1.18228269       0.68121201       0.19691120      -0.85199749       0.36192796       0.19695941      -0.90751660       0.81221318      -0.00413653      -0.58833998      -0.22153604      -0.15026784      -0.35068777       0.32341248      -0.07129494      -1.07962346       0.38782650       0.11373091      -0.10676456       1.13174605       0.50770527      -0.84547400      -0.03649268      -0.19633727      -0.09622829      -1.29457390      -0.62757170      -0.98028874       1.02365613       0.94657218      -0.56945002       0.65347761       0.32466254      -0.82219762       0.29808831      -0.43820640      -0.33675662      -0.87621498      -0.47742528      -0.41254139       0.45547861      -0.02139565       0.20283803       0.51809108       1.40149069      -1.12426388       0.70258510       0.13577574      -0.76351446       0.37310958       0.36861569      -1.10996592       0.35500309       0.35472071      -1.02505386      -0.49217600      -0.08818424
C       10.00000000      10.00000000      10.00000000       2.65592000       1.62211000      -0.08003000       2.47648978       0.66847551      -0.37859344       2.66896033       2.30019975      -0.26282498       2.42167568       0.68597215      -0.19390351       2.89685559       1.97171450      -0.28308105       3.08955383       1.23416877      -0.47198406       2.39687467       0.74003243      -0.16323422       2.60458660       0.96329701      -0.29770988       2.92902374       1.67799425      -0.32685193       2.91292334       1.24116540      -0.27176431       2.47004080       1.58846974      -0.09227821       2.75767970       1.09852064      -0.30065429       2.41709518       1.64495122      -0.01779042       2.27647209       1.64698529      -0.38193291       3.56754112      -0.74004620      -0.90940607       3.32771015       0.44798350      -1.01315105       3.63827133       1.35757470       0.07112573       3.54072690       0.11954591      -0.22475207       2.83102083       0.32482243      -1.09499776       4.90828037      -2.22998762       1.46114624       2.34142637       0.59477413      -0.69886094       3.92415977       0.68415695       0.16238779       3.98611641      -0.27349237      -1.06238961       1.74362528      -2.27608776      -1.57786512       4.60495472      -1.45466137      -1.38342381       1.72690558      -1.76928198      -1.47979105       3.31624436       1.65730965      -0.52271688       3.01787806       1.70680380      -0.24790184       1.77707183       1.47266293       0.41148919       3.19074130       2.15309048      -0.86267179
C       10.03974000       8.47208000      10.02026000      -2.14335000       0.64201000       2.58228000      -1.89272952       0.90048069       3.13450146      -2.75194550       0.60362196       2.47252989      -1.77952504       0.97587067       2.33628702      -2.19515944       0.15754735       2.40249157      -2.81198287       0.79658890       3.50558710      -2.15966249       0.68309236       2.82660079      -1.85045815       0.63453382       2.36258936      -1.96007681       0.63499999       3.19387579      -2.46344233       0.70776713       3.09837103      -2.12179828       0.30132192       2.15030980      -2.21006227       0.86779177       2.83286381      -2.57299018       0.35302082       2.18002629      -2.85232830       0.29489800       2.78580022      -0.75799596       2.46539164       3.05558658      -2.18149400       1.26800299       3.17452240      -1.44952524       1.32470191       1.67700398      -1.59716547       1.59056878       2.32089448      -2.47012043       1.82979751       3.99199796      -1.11763382       2.88538170       1.15198040      -2.13833380       2.01911807       3.69762945      -0.52230591       2.12614155       2.75956321      -1.03935909       1.59244287       3.16394043       0.81126016       1.35288095       2.54487514       1.02811277       3.38934278       2.72100830       2.40256119       2.92612648       1.23941135      -1.43750405       0.61167073       2.59013486      -1.85188174       0.60648781       2.61236715      -2.49274635       0.30519074       2.00712061      -2.32713819       0.29602599       3.21510983
C       11.33754000       7.90666000      10.57824000       1.86373000      -1.53138000       0.68954000       1.96655929      -1.19593287       0.21744388       1.64519143      -2.55483222       1.14717007       1.48024583      -1.24934399       1.00486422       1.73207545      -1.37787986       1.12622917       1.82245970      -1.59956956       0.90373957       1.75569379      -1.15191591       0.41016516       1.48751473      -1.14766169       0.55425602       1.49681973      -1.26080418       0.63670874       1.52661753      -1.81651926       0.64625043       1.79962134      -1.56252277       1.11790168       1.45582461      -1.73900914       0.27980864       2.05160213      -1.35948431       1.04287398       1.78403366      -1.76063716       1.35703993       2.08285737      -0.92655736      -1.81255996       2.01255393      -1.04097366       0.25813252       2.67071414      -1.15885270       0.47540933       2.32512856      -0.84459281       0.25532663       2.24221277      -0.64961505       0.67090714       1.83378673      -0.92811733       1.74372590       2.06235600      -2.34405017      -0.57984471       1.77014852      -1.57484412       0.27821881       1.08301759      -0.38812649      -0.14274323       0.20500080      -0.54161233      -0.70223147       1.56591821       1.22316253      -2.06685352      -1.56600451       0.16037613      -5.05631351       1.82268834      -1.07970738       0.17518991       1.81590271      -1.44340467       0.45669329       2.04051876      -1.40160799       1.45068645       1.89414191      -1.75562704       0.32292926
C       12.55176000       7.96918000       9.58160000      -0.35335000       0.87381000      -1.02537000      -1.07863176       0.69885057      -0.65803850      -0.01055364       0.73087156      -1.23410606      -0.38367724       0.81266868      -1.37637854       0.07450455       0.81408173      -1.30806422      -0.23921774       1.19895506      -0.82649773      -0.55389917       0.50644392      -0.82590055      -0.06905574       0.95195651      -0.80490267      -0.26219061       1.10771859      -1.08394563      -0.08607921       0.89937407      -1.32161176      -0.23530260       0.46436375      -1.31526458      -0.25193599       1.01948285      -0.96994162      -0.18633641       1.05900395      -1.40757680       0.32053590       0.53829670      -1.53956914      -0.93757707       1.76171005       1.08357406      -0.42309323       1.75840259      -0.53015119      -0.56031638       1.28705060      -0.69058776      -0.99081326       1.20522952      -0.18949567      -1.15130723       1.96142840      -0.46401423      -2.49136639       5.15053177      -1.48438275      -1.34119737       0.67821854      -0.14373502      -1.63465571       2.46461415      -2.24201536      -0.90934765       1.34079659       0.21474206      -0.96682036       0.30244225       1.67458308      -1.07617462       4.49824715       2.90178442       0.26944679       1.20819151       2.43589401      -0.43356633       1.17417014      -0.98690915      -0.67353684       1.05743480      -0.57495672      -0.84007454       0.32444203      -1.69533896      -0.12140501       0.66481721      -1.04034925
C       13.34276000       9.33576000       9.93734000      -0.48644000      -0.37868000       0.11507000      -0.58906579      -0.19163245      -0.01415104       0.12256742      -0.16755670       0.19870937      -0.53583848      -0.70849764      -0.05399007      -0.32302469      -1.01662397      -0.40000713      -0.01877207      -0.66305625      -0.45493585      -0.75860524      -0.60113353      -0.05409425      -0.38716710      -0.84981644      -0.42920709      -0.08411700      -0.45700830      -0.21388870      -0.90764636      -0.87323272      -0.32618079       0.29222095      -0.24470884      -0.06604940       0.26064736      -0.94491303      -0.38059556      -0.81351507      -0.44075644      -0.09121397       0.27657491      -0.35025287      -0.42894197      -0.30448189      -1.89154696      -0.41837391      -0.90664607      -0.92010832       0.24617922      -0.21331641      -1.58165145      -0.03255361      -0.41165864      -1.25773978       0.53888357      -0.10543865      -1.01822555      -0.18957372       1.33853781      -1.16892910      -0.26189780       0.00466546      -0.01083198      -0.52818739       0.16782224      -1.72625375      -0.46283856      -0.23072910      -0.73663557       0.43085027       0.49910644      -1.37799823      -0.34499753      -1.45753467      -2.24076843      -0.21916211      -0.86363137      -0.86663771      -0.00931311      -0.94638216      -0.70059681      -0.02299422       0.29795390      -1.11072361      -0.22106892      -0.44063973       0.66032207       0.57211053       0.55057991      -0.65355027       0.03424081