17
Lattice="20.0 0.0 0.0 0.0 20.0 0.0 0.0 0.0 20.0" Properties=species:S:1:pos:R:3:castep_forces:R:3:gomace_forces:R:3:forces_gomace_l0_1:R:3:forces_gomace_l1_1:R:3:forces_gomace_l2_1:R:3:forces_gomace_l0_2:R:3:forces_gomace_l1_2:R:3:forces_gomace_l2_2:R:3:forces_gomace_l0_3:R:3:forces_gomace_l1_3:R:3:forces_gomace_l2_3:R:3:forces_gomace_l0_4:R:3:forces_gomace_l1_4:R:3:forces_gomace_l2_4:R:3:forces_painn_1:R:3:forces_painn_2:R:3:forces_painn_3:R:3:forces_painn_4:R:3:forces_tensornet_1:R:3:forces_tensornet_2:R:3:forces_tensornet_3:R:3:forces_tensornet_4:R:3:forces_schnet_1:R:3:forces_schnet_2:R:3:forces_schnet_3:R:3:forces_schnet_4:R:3:forces_nequip_1:R:3:forces_nequip_2:R:3:forces_nequip_3:R:3:forces_nequip_4:R:3 castep_energy=-1542.532905391 gomace_energy=-1540.8572998046875 energy_gomace_l0_1=-1541.3045654296875 energy_gomace_l1_1=-1540.489501953125 energy_gomace_l2_1=-1540.699462890625 energy_gomace_l0_2=-1540.9317626953125 energy_gomace_l1_2=-1541.0181884765625 energy_gomace_l2_2=-1540.40869140625 energy_gomace_l0_3=-1541.2542724609375 energy_gomace_l1_3=-1540.4561767578125 energy_gomace_l2_3=-1540.1756591796875 energy_gomace_l0_4=-1541.3270263671875 energy_gomace_l1_4=-1540.7857666015625 energy_gomace_l2_4=-1540.7496337890625 energy_painn_1=-1540.8631591796875 energy_painn_2=-1545.1962890625 energy_painn_3=-1539.46240234375 energy_painn_4=-1541.2325439453125 energy_tensornet_1=-1538.74072265625 energy_tensornet_2=-1540.7474365234375 energy_tensornet_3=-1538.4493408203125 energy_tensornet_4=-1536.909912109375 energy_schnet_1=-1541.373291015625 energy_schnet_2=-1540.746337890625 energy_schnet_3=-1543.9189453125 energy_schnet_4=-1547.253662109375 energy_nequip_1=-1541.7261962890625 energy_nequip_2=-1539.8597412109375 energy_nequip_3=-1542.843017578125 energy_nequip_4=-1541.8338623046875 pbc="T T T"
H       11.76218000       9.03534000      10.14282000       0.53449000      -0.74174000       0.36356000       0.23233390      -0.74544698       0.57494628       0.11285809      -0.78622788       0.16293187       0.33800286      -0.35524604       0.45178047       0.55776691      -0.67768109       0.47408631       0.45667505      -0.86951846       0.17163566       0.83835709      -0.68961817       0.34531730       0.46968371      -0.65743816       0.15427211       0.23229009      -0.90890741       0.57967436       0.25242028      -0.57674766       0.71660876       0.44007590      -0.66586637       0.42104152       0.40962213      -0.82276857       0.79029053       0.33885133      -0.68766356       0.38900456       0.59454048      -0.57847661       0.23640196       0.09070393      -0.26484346      -0.08909801       0.67946064      -0.07268727       0.34270224       0.59464514       0.01347033       0.02462994       0.57449329      -0.02695291       0.60238004       0.49692196      -0.07125047       0.33402711      -0.24647489       0.06196037      -0.69565290       0.17573234      -0.50637054       0.61732280       0.43828091      -0.67784697       0.56199598       1.39435244      -0.36985987       0.62147522      -0.37571311       0.17593825       0.23322454      -1.17091155      -0.19878337      -0.79399097       0.22800155      -0.88338703      -0.86464316       0.52663004      -0.80619729       0.26905105       0.19576728      -0.40006614       0.51230860       0.41261476      -0.72651333       0.19686686      -0.11470123      -0.45872712       0.31852534
H       11.54714000       9.22564000       8.39284000      -1.05473000       0.95839000       0.77293000      -1.07839966       1.22622180       0.80868053      -1.26390123       1.17745030       1.45031607      -0.89936996       1.30754924       0.90517789      -0.93794680       1.18887520       0.79668224      -1.09211469       1.16389561       1.50517273      -0.75230169       1.00177932       0.86707485      -1.05095220       1.06332386       1.10427117      -1.28951657       1.22940850       0.91290629      -0.95332950       1.29829645       0.68815386      -0.98835438       1.14982080       1.02616072      -1.01754403       1.25648785       0.74079961      -1.12469673       1.04081988       0.97119176      -0.82782614       1.23527670       1.01897895      -0.66402382       0.43557945       1.23248518      -1.17568731       0.05682032       1.62123871      -0.15874809       0.38907439       0.94577777      -0.28521073       0.23620929       0.55380332      -0.79254478       0.46756822       1.46507847      -0.77371430       0.05224694       2.25015736      -1.06132150       0.67364591       0.55380493      -0.93235230       0.70785075       0.91364247       0.64721358       0.74143386       0.31129360      -1.65745699      -0.19085294      -0.02017534      -0.31090915       0.04672211       0.82061458      -1.96602750      -1.20587778       0.68569154      -1.02717137       0.74025351       0.94090873      -1.20705473       0.98706543       1.15906525      -0.99750453       0.85430968       1.41026521      -1.28155136       0.75199962       1.41178381
H        9.92798000       7.17172000       9.87174000      -0.07055000      -0.17320000       0.13829000       0.00605519      -0.24924242       0.54549277      -0.15580016       0.25680897       0.04108426      -0.00985372      -0.17722213       0.16270307      -0.02353687       0.14686155       0.34346783      -0.02544265      -0.54620898       0.37006241      -0.10435709      -0.09668446       0.05185309      -0.06165562      -0.21568805       0.20450233       0.03021455      -0.54997683       0.45142439      -0.10213769      -0.30691138       0.02508023      -0.02048525       0.04029898       0.37693539       0.00676474      -0.31140482       0.52437234      -0.06607793      -0.13832976       0.58417141      -0.03855046       0.07558000       0.21639320      -0.01209833       0.53619158      -0.35642678      -0.10762032      -0.45968130       0.24957642       0.02440278      -1.05617476       0.81748146       0.10885471      -0.74016011       0.57244116      -0.16016184      -0.55695277       0.20345454      -0.04919198       1.25444472       0.71866113      -0.07852463       0.31457987       0.18946186      -0.35274535       0.39406100       0.38897803      -0.02662419      -0.02202177       0.11677587      -0.18209065      -0.62688351      -0.31367850       0.04610059      -0.38201332       0.48790956       0.11310624       1.87282741      -0.95508420      -0.06657137       0.28158370      -0.27141812      -0.05498118      -0.40358028       0.21043843      -0.12735641       0.19876261      -0.33980304      -0.10611441      -0.26328638      -0.17502612
H        8.18010000       8.88192000      10.52168000       0.66265000       0.10880000       0.15164000       1.00503230       0.06927831       0.34456605       0.83034897       0.08190079      -0.11994864       0.75629145       0.29067597       0.23467994       0.68787980       0.21128130       0.23675352       0.90236187       0.19762439      -0.29272565       0.40673029       0.13483311       0.22966550       0.65697312       0.19483204       0.02653971       1.00933385       0.01365244       0.31711060       0.90746266       0.11547858       0.39924714       0.66031671       0.21483436       0.14268529       0.77486563      -0.04286098       0.38511279       0.66445911       0.02484536       0.11064035       0.58933514       0.19766833       0.10030687       0.83611131       0.00321096      -0.43715978       0.35919580       0.05749004      -0.46771455       0.35686317       0.03927965      -0.27845904       0.19664893      -0.10486410       0.15208647       0.45645767       0.00219103      -0.13539141       0.79136729       0.44264272      -1.11662471       0.80771309      -0.36316890       0.04307462       1.11534774      -0.24210437      -0.32320654      -0.15484756       0.16414377      -0.10558331       1.59542739      -0.03821677      -1.20020318       1.37134469      -0.20456670      -1.32420111       3.06340456       0.24296325      -2.26696968       0.67955852      -0.06591086      -0.02605826       0.87691611       0.14520574       0.15255606       0.67667228       0.05644575       0.02220464       0.98602277      -0.06441753       0.04190046
H        8.23398000       9.65370000       8.91642000       0.70753000      -1.09507000       0.47268000       1.23848581      -1.01214433       0.72819614       0.96851730      -1.13774300       0.70760131       0.68943751      -0.79349256       0.75677854       0.68094552      -0.76184344       0.61212856       0.98178470      -1.26912618       0.87502617       0.57183421      -0.78289455       0.48190311       0.79646003      -1.00824070       0.84511757       1.19256997      -1.06480634       0.60553694       0.90680832      -0.78012455       0.55439728       0.84144050      -0.92478710       0.74273551       0.96484339      -0.86654252       0.35135663       0.79118437      -0.94263947       0.74136579       0.68967456      -0.83667541       0.82573009       1.11213315      -1.12004983       0.79395682       1.05744565      -0.96632725       1.34063685       0.18584386      -0.40415102       0.94288814       0.41042188      -0.42123589       0.45204657       0.94702041      -0.82448512       1.19205344       1.14888000      -1.14588821       1.87518656       0.92884314      -0.57001793       0.17799416       0.90321428      -0.99892378       0.64825618       0.27461988      -0.83930993       0.69579512       1.02352846      -0.77017701       1.24581647       1.99215555      -1.79306376       1.05603480       0.90583497      -1.34445226       0.99743378       0.80094850      -1.02960229       0.48956183       1.04405463      -0.79745156       0.78756297       0.96678710      -1.26700771       1.08130527       1.17511523      -1.04714656       0.69830841
H        9.79304000       8.47098000       7.11276000       0.07422000       1.44403000      -1.17930000      -0.05204387       1.32418954      -1.85573220      -0.12167476       1.37445796      -0.92565346      -0.04587311       1.88159156      -1.79722667       0.04924574       1.63988125      -1.46127009      -0.06034270       2.02343583      -1.41829967      -0.05993167       1.60177922      -1.51035225       0.05150101       1.72911167      -1.58769011      -0.01320732       2.12724900      -1.63231254      -0.07187901       1.35581112      -1.51717663       0.00024391       1.84997642      -1.35638428      -0.03638930       1.30044842      -1.57581997      -0.06055666       1.64539325      -1.34894705       0.05751809       1.75805008      -1.29259872      -0.06243309       2.35689521      -1.17391682      -0.09262571       2.74595761      -1.41051888      -0.16763979       2.42260838      -1.31896174      -0.07802622       2.47963667      -1.46432400       0.00083065       1.66722727      -1.68235254      -0.10107651       0.80719078      -1.31059790       0.01895087       1.51040471      -1.01817465      -0.10673546       0.73993725      -1.11610818      -0.14230639       1.48752403      -1.80599284       1.50039172       3.03900385      -2.14112997       0.49151802       1.50071025      -1.18937337       0.73455620      -2.24364066       1.62226272      -0.03058254       1.14869905      -0.09221379       0.11100175       2.94900990      -1.75704670      -0.03334015       1.06281304      -0.47296888      -0.03641550       1.12763882      -1.30108833
H       10.99428000       5.80908000       8.22130000      -0.19857000       0.56806000      -0.50643000      -0.26359001       0.04146731       0.86646414      -0.17977402       0.70332104      -0.68949950      -0.01071564       0.31699729      -0.33264366       0.01160649       0.26242396      -0.44067702       0.44105348       0.19531646      -0.12723103       0.04980237       0.36164618      -0.21695215       0.14899366       0.15976284      -0.48585221       0.28358868       0.31957227      -0.18144047       0.03003278       0.24102497       0.16661422       0.12432174       0.21285407      -0.38997793      -0.33430198       0.51767886      -0.22273782      -0.15319839       0.42133129      -0.41911560       0.01702666       0.30729446      -0.43104202       0.31414592       0.21086463      -0.66457212       0.60443473      -0.00619829      -0.50762814       0.54546416       0.07406405      -1.25264394       0.58236599      -0.13694239      -0.31966335      -0.35871971       0.41137278      -0.22575860       0.07401323       0.53660530      -0.99626237      -0.43952197       0.84402370      -0.95774013      -0.13113406       0.62483472      -0.06773457       0.07455218       0.64909136      -1.31566250      -1.16593516       0.78456664       0.28475225      -0.84387183       1.02092147      -0.75843406      -3.06624031       3.02493095      -2.75123453      -0.25033882       0.70005071      -1.07919347       0.12018607       0.04964449       0.37914202      -0.10268006       0.76438689      -1.01706219      -0.15284969       0.58103782      -0.36571360
H       11.06942000       6.35598000       6.43264000      -0.34483000       0.10219000       0.73770000      -0.44283509       0.70026821      -0.35717893      -0.34282944       0.12813365       0.83285385      -0.37768820       0.32685104       0.47048336      -0.10375457       0.02173456       0.66064280       0.29475611      -0.05818249       0.12830791      -0.21481968       0.19864139       0.37472859       0.00390521      -0.01601004       0.64210385       0.10505883       0.11704943       0.24904728      -0.24523479       0.56387275       0.12565678       0.05142722      -0.06421009       0.51726943      -0.56289440       0.45632562       0.49297816      -0.33932590       0.26819617       0.55686504      -0.14269421       0.01949322       0.61022079      -0.01330850      -0.05717336       1.17449021       0.49188870      -0.20276731       0.54375583       0.14289209      -0.28058958       1.33259428       0.41257042      -0.21683058       0.55033994      -0.53612125       0.26779294       0.50653917      -0.03943247      -0.08235919       0.92870629      -0.68292809       0.27978665       1.34263754      -0.49529064       0.62778199       0.35211235      -0.06624341      -0.47081110       1.53192389      -1.41438437       0.67355233       0.75992429      -1.07230890       0.22742331       1.31545925      -3.03792858       0.68322825       3.57050729      -0.56204081       0.06591346       1.46090662      -0.14299151       0.31407881      -0.20187090      -0.25209743       0.01498111       1.17732286      -0.26325160       0.11235923       0.48892012
H        8.46698000       5.92686000       8.16360000       0.29008000       0.12455000      -0.56347000       0.30220801      -0.28127640       0.80004680       0.22484185       0.28144348      -0.65879375       0.03072967      -0.13964514      -0.35617939      -0.01628710      -0.08433364      -0.51397008      -0.36500302      -0.15648361      -0.13500994       0.07950567      -0.11577308      -0.29492354      -0.27699259      -0.31292716      -0.48552811      -0.22782643      -0.16495693      -0.26943749       0.07388827      -0.09686086       0.04386833      -0.17004265      -0.18356113      -0.43881762       0.32168052       0.04380606      -0.22534434       0.21541798      -0.04502987      -0.36948270      -0.02209897      -0.18775213      -0.49026969      -0.30182478      -0.12603137      -0.76668090      -0.52849960      -0.16849966      -0.72093308      -0.55080271      -0.24846384      -1.37213159      -0.64454913      -0.45850790      -0.42603374       0.44038618       0.09309253      -0.14672701      -0.04633860       0.23750696      -1.00964391       0.58500171       0.36175144      -0.88239354       0.25652045       0.36841726      -0.13353755       0.15815055       0.43987465      -1.66420174       1.64832044       1.13175452      -0.39152241       1.59052563       0.74598753      -0.80824614       2.91666722       2.41198778      -2.31976652       0.44428369       0.30405492      -1.19323468      -0.08629031      -0.22582284       0.32700619       0.29330501       0.31275070      -1.06741440       0.22957179       0.21186277      -0.40109360
H        8.53438000       6.43914000       6.36614000       0.29128000      -0.02720000       0.66220000       0.51772624       0.61499202      -0.35997161       0.22217473      -0.05480327       0.61481845       0.37933290       0.11671394       0.38788104       0.07062583      -0.12823796       0.58236301      -0.34430969      -0.19777654      -0.01144817       0.20306495       0.02190368       0.23463584      -0.06695961      -0.14059132       0.52655762      -0.09359396      -0.07141529       0.14382708       0.34024060       0.40298575       0.18877089      -0.14214817      -0.22357555       0.38469648       0.49170271       0.20969775       0.31085771       0.33469671       0.07405172       0.42222995       0.08705432      -0.15150380       0.50082636       0.05388197      -0.23258299       1.12482262      -0.43221194      -0.34816483       0.53010404      -0.03742504      -0.30845746       1.36582685      -0.36643568      -0.38063690       0.35155964       0.54094666       0.18388671       0.42400756      -0.01933403      -0.24174321       0.78549218       0.59739012       0.11637753       1.21238995       0.51659626       0.58703947       0.47909328       0.16962051      -0.50522697       1.79968023       1.48182273       0.56509894       1.30535984       1.41835141      -0.01431778       1.22946882       3.27748942       1.15790546       3.99724531       0.52965271      -0.10561658       1.49064696       0.23034537       0.12850890      -0.21201797       0.29429907      -0.23185325       1.10304546       0.26036754      -0.05304828       0.42004991
C       10.98986000       9.09880000       9.38832000      -0.31321000      -0.64010000       0.33090000      -0.18802154      -0.67651206      -0.34341967       0.50178283      -0.13125396      -0.05880564      -0.63485110      -1.44832468       0.04823244      -0.66850847      -1.17106152       0.19942605       0.80858243      -0.68068796      -0.35981053      -0.77656949      -1.11389565       0.16817069      -1.33538413      -1.19372940       0.18992782       0.41564202      -0.60427582      -0.00838292      -0.04304183      -0.69013596       0.18674052      -0.30001271      -0.79359603       0.03574109       0.33802211      -0.64015716      -0.09322298       0.10393775      -0.46524799       0.06361014      -0.26281542      -1.15356231       0.21111906       0.35908845      -1.08147979      -0.03820311      -2.17176652       0.21539196      -0.44893426       0.00391281      -1.17887568      -0.67249000      -0.52772391      -0.38845450      -0.42231974       0.73360229      -0.78089392      -1.10279405       0.23166539      -0.66581684      -0.92071217       1.83044195      -0.98016268      -0.51503921       1.07431412      -1.75959897      -0.98942423      -1.50154567      -0.09672737       0.42708266       0.54588521      -1.00511932      -0.59912628       0.20765960      -1.26837683      -0.13999867      -0.53517908      -0.76756108       0.43801719       0.25072098      -0.01145601       0.47207272       1.07594061      -0.16499949      -0.17271954      -0.30506933       1.00420702       0.60167646       1.03179514      -0.46726626      -0.27580833
C        9.84694000       8.05412000       9.23496000       0.88048000      -0.64609000      -1.47612000       0.26678109      -1.96664524      -1.75140834       0.40127483      -1.92469299      -1.02369142       0.78450954      -0.48566735      -1.16478574       0.86792082      -0.34510219      -1.14529741       0.44544938      -0.63968349      -0.98640108       0.52457178      -0.92083621      -1.74720585       0.64589477      -0.60912073      -1.01948261       0.17718033      -0.63936681      -1.82290673       0.62318325      -2.31665301      -2.15870476       0.49769169      -1.07619452      -2.17234707       0.42157644      -0.78835785      -1.62054086       0.58843249      -1.91392457      -2.21666241       0.50845277      -1.25967979      -1.29162252       0.57300323       3.20229292      -0.71905845       0.64592189       1.69564056      -1.19166577       0.66872782       1.40133619      -1.46596217       0.51525789       2.46782637      -0.61833721       0.70579016       0.67810816      -2.13314605       1.09265077      -0.65813875      -1.52707326      -0.04927863       0.02586234      -2.16217995       0.83861732       0.95120573      -2.19024587      -0.00909844       1.61844599      -1.72642136      -0.41099322       2.30764604      -2.09203076      -0.13386127       3.77997994      -0.95379442      -0.83662581       2.75172734      -1.28202224       0.91057038      -0.08227599      -0.35093811       0.42590958      -2.40344501      -2.54246330       0.59219933      -0.95704544      -1.71122277       0.56517458      -0.45660663      -2.31585193
C        8.89024000       9.10298000       9.69242000      -1.35000000       1.88446000      -0.43737000      -1.53662002       1.68087137      -1.56550980      -1.43334019       2.06065369      -0.24658430      -1.25831878       1.24320555      -1.11893296      -1.21008146       1.06051159      -0.74520540      -2.45874405       1.68713117      -0.34200370      -0.94965577       0.81018013      -0.62157774      -0.24247217       0.95470083      -1.11246943      -1.80481827       1.68483496      -0.72155362      -1.76880074       1.77561176      -0.74422443      -1.41998625       1.32315648      -0.54743898      -1.97482300       1.62274086      -0.22619639      -1.49130082       1.74495006      -0.91830611      -1.31810999       1.09934008      -0.76971847      -1.83854771       0.77596319      -0.02438365       0.94871444       1.82569289      -0.42921448      -1.95304906       0.52974397      -0.49749279      -1.09384012       0.71015298      -0.43639418      -2.76519132       0.74019706      -0.73650062      -2.34647226       0.83922100      -0.41616157      -2.94107389       0.18705970      -0.23624599      -3.64614010      -0.08147150      -0.43101880       0.35505378       0.65149176      -0.28830880      -1.91472697      -0.21591443       0.27843133      -1.69029140      -0.23702604      -0.42965871       0.00775123      -0.79536653       0.06500486      -1.94071841       2.08015442       0.11305569      -2.72880554       2.10190678      -0.18367940      -1.24557698       3.10115099      -0.34581578      -2.54650164       1.80064523      -0.15649879
C        9.75402000       7.66822000       7.77704000       0.62594000      -1.65098000       1.58414000       0.48197347       2.10629368       3.98824739       0.74007034       0.48653212       1.37538886       0.67137694      -2.64925408       1.93254662       0.66928774      -0.98485851       2.09575224       0.61174941      -3.44428682       0.99455321       0.70942932      -0.48098570       3.03374457       0.59075499      -1.24169946       1.81691480       0.79102820      -3.89250708       1.36380458       0.41822439       1.07948303       2.77463770       0.79769111      -0.82844627       2.80027819       0.67052150      -4.59081793       0.75339872       0.60290390      -0.33128422       1.83164215       0.77346730      -0.74078566       1.41891158       0.42242238      -6.73129559       1.47281265       0.49393815      -5.58303690       1.30951595       0.95535731      -5.28598118       0.07391816       0.57075018      -6.59168625       0.37382460       0.34234366      -2.71515799       2.54248691       0.56444705      -0.50352436       1.68873477       0.51988256      -3.47342277       2.32462788       0.71270347      -4.47887897       2.01294756      -0.17505303      -7.90938282       0.89499152      -0.54979837      -8.78417587       2.63065004       0.01064503      -8.62547874      -0.03556293       0.06120205      -7.73501301      -0.55684686       0.32440308      -1.76426792      -0.97567266       0.40009230       0.87353021       3.21594715       0.76086396      -0.38862592       1.76144969       0.96460074      -4.20132017       2.36218333
C       10.53336000       6.41706000       7.40928000       0.56476000      -0.56223000      -0.50895000       2.91287518      -2.32567692      -1.28200245       2.79329062      -1.90850210      -0.60113937      -0.30720553      -0.50309849      -0.32920769       1.06801331      -0.69519126      -0.71857351       0.02967936       0.20134082      -0.22355893       2.39882803      -1.66315508      -0.99426317      -0.71994901      -0.44153762      -0.51440400      -1.34985447       0.47076243       0.11535011       1.42696524      -2.30642962      -0.86102778       1.00818706      -0.77616084      -0.68667436      -1.70648873       0.50761294      -0.21443596       1.29021692      -1.13738728      -0.22750235       1.68382096      -0.85009658      -0.42791122      -4.88279152       1.31906581      -0.66775596      -3.39974642       1.10613465       0.09314510      -3.54224372       1.31431675       0.44652247      -4.16624260       2.01447129      -0.00962214      -0.15173697      -0.11484978      -0.03683686       0.31412110       0.25917092       0.27014056      -1.49423122       0.01980054      -0.31406105      -2.89424729       0.89895177       0.03232977      -5.32456684       2.70640302       0.18237679      -3.54468346       1.51889384      -0.00413769      -9.10047245       3.45791745       0.34111091      -4.89336777       1.62583220      -0.26241961      -0.29995614      -0.86033714      -0.33163494       4.31805611      -2.41203189      -0.64975548       1.51203489      -1.29299057      -0.53349900      -0.58037883       0.63887757      -0.42231476
C        9.03242000       6.44988000       7.36208000      -1.36854000      -0.80900000      -0.25616000      -3.45217800      -2.24506903      -1.14241672      -3.43178940      -1.87236691      -0.42113668      -0.45044884      -0.40641651      -0.11711632      -1.81271577      -0.95119303      -0.51508510      -0.72001284       0.30462414       0.05860076      -3.16623735      -1.36645329      -0.72109592       0.22313809      -0.44251353      -0.14654025       0.51951402       0.50594145       0.40446925      -2.07941675      -2.08768749      -0.61166900      -1.62476254      -0.84321964      -0.45891792       1.06154609       0.53902578       0.22544049      -2.00625038      -1.12065506      -0.06593513      -2.55344462      -1.07632494      -0.32992721       4.14228249       1.29446328      -0.12075533       2.89575100       1.61782694       0.60208344       2.69259501       1.32884061       0.68635929       3.47968292       2.09955263       0.56790560      -0.31281090       0.15497962      -0.01250379      -0.84018350       0.11244154       0.38952142       0.91587448       0.16835856      -0.04516611       2.25215125       0.84956378       0.26167244       4.65930271       2.79109240       0.96379346       3.17199564       1.17290473       0.04278004       7.18438482       2.75154781       1.63192558       4.80859184       0.76651645      -0.56903243      -0.32238063      -0.58365929       0.07364817      -4.83765030      -2.12796998      -0.52485627      -2.54172182      -1.22859788      -0.28397703      -0.40946645       0.32623962      -0.08300255
O       10.00000000      10.00000000      10.00000000       0.06901000       1.15513000      -0.28623000       0.05021657       1.73843086       0.00099888       0.13394986       1.26488793      -0.43974185       0.34464365       1.47478211      -0.13417092       0.10953905       1.26793313      -0.46122414       0.09387833       2.08858633      -0.20686993       0.24174924       3.09953356       0.31927747       0.16706108       2.17776465      -0.15823981       0.02239677       1.42774153      -0.50711745       0.28461480       2.32898617       0.02302662       0.24439615       1.58867645      -0.39698571       0.17129621       1.60908592      -0.39630812       0.31130612       1.56257415      -0.10476953       0.16464983       2.14215446      -0.10579918      -0.12874588      -0.52107054      -0.74055612      -0.26859236      -1.51359177      -1.45614910       0.23920429       1.24995863       0.22214308       0.31098208      -0.54157758      -0.47969314       0.41298732       0.39717454      -0.45563623       0.24507408      -1.30596066      -0.91387194       0.36704931       1.39149189      -0.33031321       0.45089859       1.48918128      -0.39975211      -0.33258015      -1.03616130      -0.63901865       0.24841049       0.26198065      -0.01893404       0.00994118      -0.80758333      -0.44926271      -1.78123701       0.43737981       0.45185673       0.03299182      -0.01138616      -0.98948705       0.25950369       1.38641715      -0.49961698       0.09657034      -1.27717352      -1.58237314       0.27858242       1.46115851      -0.24527365
17