15
Lattice="20.0 0.0 0.0 0.0 20.0 0.0 0.0 0.0 20.0" Properties=species:S:1:pos:R:3:castep_forces:R:3:gomace_forces:R:3:forces_gomace_l0_1:R:3:forces_gomace_l1_1:R:3:forces_gomace_l2_1:R:3:forces_gomace_l0_2:R:3:forces_gomace_l1_2:R:3:forces_gomace_l2_2:R:3:forces_gomace_l0_3:R:3:forces_gomace_l1_3:R:3:forces_gomace_l2_3:R:3:forces_gomace_l0_4:R:3:forces_gomace_l1_4:R:3:forces_gomace_l2_4:R:3:forces_painn_1:R:3:forces_painn_2:R:3:forces_painn_3:R:3:forces_painn_4:R:3:forces_tensornet_1:R:3:forces_tensornet_2:R:3:forces_tensornet_3:R:3:forces_tensornet_4:R:3:forces_schnet_1:R:3:forces_schnet_2:R:3:forces_schnet_3:R:3:forces_schnet_4:R:3:forces_nequip_1:R:3:forces_nequip_2:R:3:forces_nequip_3:R:3:forces_nequip_4:R:3 castep_energy=-1509.888595167 gomace_energy=-1507.3150634765625 energy_gomace_l0_1=-1508.774658203125 energy_gomace_l1_1=-1507.7574462890625 energy_gomace_l2_1=-1508.4609375 energy_gomace_l0_2=-1508.7020263671875 energy_gomace_l1_2=-1508.315185546875 energy_gomace_l2_2=-1508.3973388671875 energy_gomace_l0_3=-1508.6497802734375 energy_gomace_l1_3=-1508.3856201171875 energy_gomace_l2_3=-1508.064697265625 energy_gomace_l0_4=-1508.82958984375 energy_gomace_l1_4=-1508.6348876953125 energy_gomace_l2_4=-1508.5361328125 energy_painn_1=-1508.6878662109375 energy_painn_2=-1512.1751708984375 energy_painn_3=-1507.874755859375 energy_painn_4=-1509.256103515625 energy_tensornet_1=-1507.3837890625 energy_tensornet_2=-1508.314453125 energy_tensornet_3=-1506.97216796875 energy_tensornet_4=-1506.0263671875 energy_schnet_1=-1508.562255859375 energy_schnet_2=-1509.6341552734375 energy_schnet_3=-1511.6041259765625 energy_schnet_4=-1514.4383544921875 energy_nequip_1=-1509.256591796875 energy_nequip_2=-1508.677978515625 energy_nequip_3=-1508.980712890625 energy_nequip_4=-1509.276611328125 pbc="T T T"
H        9.68264000      10.84954000      10.64544000       0.61174000      -0.24070000       0.00637000       0.63844168       0.57921916       0.35712764       0.53125072      -0.40267837      -0.06527492       0.51364625       0.02437356       0.16233778       0.51867294      -0.23973012      -0.00974199       0.50580966      -0.04338664      -0.03142184       0.54412961       0.11518878       0.14680201       0.52128839      -0.27926117      -0.07063766       0.26923367      -0.15708682       0.13267229       0.45556796      -0.50014937      -0.00748897       0.60232639      -0.25544381      -0.13812652       0.65018344      -0.35449538       0.24890052       0.72312689      -0.10529315       0.03101122       0.66266596      -0.32727671      -0.23444067       0.65799153      -0.42338365      -0.55699968       0.64828986      -0.37659290      -0.43168834       0.37277621       0.32930571      -0.09879127       0.42108533       0.31033286      -0.13538572       0.57862222       0.19856590      -0.57802600       0.65146381       0.73479521      -1.44233692       0.22613940      -0.63209456       0.14290462       0.67671955       0.58864373      -0.11584993       0.65528023      -0.49729097      -1.14035583       0.35412759      -2.92729068      -1.01768851       0.58629459      -0.39403677      -0.64361048       0.29581824      -2.55566335      -1.28998542       0.50825953      -0.64141995      -0.36620450       0.64428657      -0.30978215      -0.02715793       0.65009272      -0.08939090      -0.12420347       0.45429412      -0.24753448      -0.01792940
H        9.68214000      10.30164000       8.94796000       1.27895000       0.18183000       0.86169000       0.93705940       0.33097935       0.28909403       1.19586635       0.42709583       1.00526834       1.02751231       0.55037236       0.47331560       1.30391765       0.45296681       0.52534658       1.36254334       0.26662591       1.06678641       1.06800103       0.73342723       0.37085217       1.49180412       0.51867461       0.78278732       0.96710598       0.35983554       0.82602817       1.02175856       0.19319542       0.81285501       1.31280863       0.35319072       0.65237045       1.28675711       0.12143132       0.70796740       1.14909983       0.14365987       0.75941032       1.39763892       0.45277342       0.87336636       0.94762433       0.28090298       0.70437628       0.78692299       0.51172560       0.50670850       0.93030453       0.92766088       0.24266285       0.80469060       0.50774598       0.36687973       0.99078023       0.41019681       0.03784269       0.70635366       1.53587747       1.49461758       1.38259184      -0.18235175       0.25529045       1.26859510       0.68501157       0.61851549       1.31535959       0.40048730       1.70378804       0.56970942      -0.40695214       1.44964898       1.01008892       0.52652645       1.38901949       0.77040720       2.14873934      -0.86467248       1.46051669       0.06891286       0.84963179       1.22291160       0.00792385       0.90461373       1.19167447       0.15266456       1.02239370       1.06541753      -0.10662007       0.98099810
H        8.08540000       9.06772000      10.65752000      -0.07445000      -0.26083000      -0.11082000      -0.14761147      -0.37970564       0.03806536       0.35736430      -0.37189054      -0.17010900      -0.52399403      -0.38417435      -0.01547053      -0.21742949      -0.11057647      -0.04487728      -0.05910594      -0.28865486      -0.12715544       0.00261083      -0.45848829      -0.29461515       0.05733195      -0.20491070      -0.10326212      -0.19487461      -0.16882472      -0.00165375      -0.08149590      -0.31853694       0.12235875      -0.45360279      -0.01280598       0.06629322       0.06634924      -0.38216251      -0.06497112       0.05358706      -0.45708308      -0.24118835      -0.51543421      -0.05735452       0.02742673       1.09679306       0.13287881      -0.37675059      -0.05211367       0.60622001       0.37199473       0.30604118       0.54736733       0.22985956       0.11630061       0.41310617       0.12258819      -0.42092663      -0.05195230      -0.18242392      -0.04271209      -0.03847368      -0.24286318       0.35026062      -0.11288394      -0.19669929      -0.46085927      -0.26502019      -0.09084587       0.35638475       0.00010633      -0.15760958       1.29323578      -0.43616945      -0.41084003       1.45962954      -0.95854825      -0.86605620       4.04737711      -1.18038654      -1.56080472       0.74292505      -0.04164401      -0.42489570      -0.45920265       0.04525162      -0.01752157       0.83811212      -0.09891503      -0.57296777       0.02614339      -0.24642295      -0.27324295
H        9.99818000       7.88206000       8.40382000      -1.15141000       0.37945000       0.31782000       0.20483267       0.53680968      -0.48041886      -1.29791522       0.33596426       1.13240504      -1.27436316      -0.12628971      -0.38647932      -0.93389022       0.19509119      -0.30011290      -0.86799783       0.35394403       0.40538383      -0.75627375       0.29652330       0.05467418      -0.49098051       0.21682167      -0.26962903      -1.36094093       0.18560135      -0.13781428      -0.64502048       0.23523614      -0.16675049      -1.13009369       0.22863795      -0.15607482      -0.83199978       0.17841026       0.73368132      -1.27767467       0.21972077       0.42559731      -1.29097199       0.24488695      -0.10135432      -1.31009555      -0.22546421      -0.07898223      -0.89117432      -0.51489902      -0.69286221      -2.12018490      -0.71788466      -0.76244777      -0.86799335      -0.32063371      -0.59337020      -0.74015528       0.00399800       0.17795727      -1.27894235      -0.45734820      -0.27026218      -1.56132793       0.00563918       0.42781252      -1.34617043      -0.29341292       0.25201952      -2.75821543      -0.66472644       0.11169648      -1.80716920      -0.31766421       1.78577411      -2.17023277      -0.48895442       1.13180494      -4.11356735      -0.04642895       3.11103487      -1.99507666      -0.05922158       0.43460274      -0.47666276       0.33035728      -0.04903255      -1.82607460      -0.18216686      -0.23389320      -0.61037683       0.39819708       0.05031666
H        8.20318000       7.38030000       8.69590000       1.02436000      -0.07329000       0.93438000      -0.74473256      -0.34716731       0.72124779       1.35022783       0.38078147       1.22136939       1.08309841       0.26397225       1.30055332       0.88049430      -0.07289451       0.66609371       0.72161162      -0.12404191       0.55605054       0.52697307      -0.03215605       0.87113678       0.86140239      -0.00267479       0.72326368       0.76880646      -0.14025250       0.70577121       0.48305988       0.13099231       1.19703555       0.82065809      -0.07024305       0.53677547       0.89871830       0.20194153       0.97534645       1.09079456       0.21606094       1.08826935       0.97660333      -0.01454422       0.91486895       1.60854208       0.71261096       0.84153086       1.19085360       0.28785011       0.09631693       1.31518078       0.39172286       0.00802684       1.08825493       0.27613020       0.38749427       0.62279844       0.12983069       0.68952280       0.66371775       0.07317644       0.00556439       1.53762364       0.63863283       1.23960972       0.28082544      -0.06856039       0.96491826       2.03276825       0.57444763      -0.21829164       0.98801696       0.75916606       0.91710073      -0.04038286      -0.11033392       0.19921589       1.95634151       1.71991813       1.62165570       1.86619711       0.50983948       0.96813309       0.61189598       0.10514341       1.12406707       1.83883941       0.40625134       0.82828617       0.74241686       0.04832442       0.87496316
H        9.34438000       6.89218000      11.22488000       0.49351000      -0.18037000       0.11569000      -0.17050479      -0.67492914       0.68662196       0.49663451       0.13316667      -0.30504507      -0.09318352      -0.44001085       0.05173355       0.40607059      -0.33447120       0.17051220       0.39857718      -0.53966999       0.34513134       0.28916365       0.06111860       0.11057201       0.40581232      -0.36004239       0.04674885       0.46384132      -0.34506211       0.22381936       0.19553268      -0.01261300       0.42800069       0.29152289      -0.48848200       0.33684158       0.44542080      -0.04547834      -0.00967184       0.19546168      -0.18870491       0.01301594       0.24124321      -0.48730683       0.28657150       0.60478455       0.36043996      -0.48746675       0.43365341      -0.39240548       0.54628646       0.57722372      -0.22059196       0.29136944       0.22777084      -0.38645315       0.19261631      -0.13387661      -0.32587463       0.26541662       0.25009608       0.28156340      -0.63035703       0.41428199       0.44356593      -0.19704251      -0.18900841      -0.20860250       0.00828238       0.61822647       0.12044919      -0.17523313      -0.20626736       0.72358918      -0.13627315       1.10571682       1.13490939      -1.51003468       0.71403182       2.91652513      -2.88456941       0.93517709       0.35189980      -0.38921908       0.44594282      -0.39816588       0.11658215       0.79020035       0.29002047      -0.50431204       0.26510611       0.12274384      -0.22383288
H       11.92720000       7.24970000      10.91238000      -0.24722000       0.51723000       0.05589000      -0.23028484       0.71067119       0.15021189      -0.28678244       0.51861203       0.01235607       0.06924132       0.48433712       0.16866268      -0.26730505       0.63729596      -0.02268292      -0.23206869       0.61208737       0.01317810      -0.26421970       0.56684196       0.00926907      -0.30540815       0.69720954      -0.05442299      -0.32684383       0.53969324       0.13115263      -0.46436000       0.69514978       0.04527492      -0.14221753       0.55631441       0.05378972      -0.36295530       0.76306379       0.01664259      -0.15533146       0.75556862       0.19363043      -0.19437094       0.43486670       0.06311749      -0.89780438       0.97662562      -0.62138236      -0.49970251       0.52495956      -0.33342907      -0.28298444       0.62631911      -0.08620444      -0.48975942       0.61035967      -0.26778910      -0.02398134       0.17693949       0.14790651      -0.67414391       0.78830731      -0.40308285      -0.30275625       0.55837590      -0.00461948       0.07586008       0.40943873       0.01677144      -0.39064372       0.58139300      -0.41143584      -1.70245314       1.20451653      -0.74549150      -0.66993666       0.21936965      -0.12409067      -2.48769951       0.84351391      -0.79526210      -0.22184768       0.45222005       0.26020068      -0.33143473       0.64912689      -0.00901563      -0.08183494       0.67060101       0.01105149      -0.04466841       0.23936659       0.16653311
H       12.20580000      10.13672000      10.59008000      -0.04831000      -0.58131000       0.06829000       0.04005989      -0.69066417       0.14046071      -0.25539225      -0.75061339      -0.11241566       0.02870438      -0.68853319       0.01212100      -0.13148612      -0.64536977      -0.01642445      -0.10571057      -0.83698887      -0.16655783      -0.14117363      -0.79518068      -0.02654800      -0.27030656      -0.72538936      -0.02562376      -0.09353587      -0.80758619      -0.08982188       0.00254080      -0.70212007       0.02503896      -0.07353790      -0.68116748       0.01902480      -0.19079727      -0.81956023      -0.04744050      -0.21853182      -0.81748921       0.12783459      -0.06712158      -0.41986617       0.03111389      -1.09585261      -1.28165245      -0.61005706      -0.35213792      -0.55437493      -0.19867930      -0.52626568      -0.81499767      -0.19268300      -0.66735077      -0.71546704      -0.26505190       0.10829601      -0.22857982       0.05219816      -0.41141522      -0.38539442      -0.10200725      -0.24674037      -0.73231506      -0.02915452      -0.00293117      -0.52291667       0.05110356      -0.32397974      -0.62487590      -0.26796412      -1.07166994      -1.24538994      -0.72400403      -0.67713964      -0.20382655      -0.20341951      -1.50932002      -0.77622396      -1.00869048      -0.04021311      -0.57050383       0.24645184      -0.39722770      -0.92319053      -0.05990303      -0.20986965      -0.72165000       0.00548299      -0.00008234      -0.48815602      -0.00529498
C       10.00000000      10.00000000      10.00000000      -1.03198000       0.93889000      -0.19410000       0.16967160       0.01661283      -0.08055884      -1.46490431       0.81357265      -0.72230780      -1.16041112       1.12309813      -0.25777382      -1.12134254       0.66796637      -0.05433851      -1.44774055       1.02703726      -0.58147871      -1.12097859       0.06388617       0.00426191      -1.23118711       0.82471782      -0.52212447      -0.69444829       1.05561042      -0.53685838      -1.21066904       0.22157961       0.06412049      -1.49117100       0.80584413       0.16008088      -1.45876765       1.31531847      -0.51949787      -1.69729793       0.59836459      -0.24365503      -1.51934505       1.14550269      -0.24135309      -1.31229234       0.95714277       1.02966440      -1.54889178       0.75818884       0.69495326      -1.62758684       0.75250822       0.26015320      -0.86092919       0.96888471       0.32173759      -1.41169083      -1.09560227       2.33969021      -1.56837809      -2.58417177       0.35747942      -1.62882459      -0.35829937       0.99548900      -2.03575420      -0.30899423       0.62098145      -1.90396643       1.65808845      -0.06239842      -1.51594448       0.89729965       0.20650090       0.03180683      -0.52789164       0.31100273      -0.65094179      -0.04389367       1.27140832      -1.52671397       1.42706072       0.44654864      -1.64732933       0.56521070      -0.17495686      -1.67414761       1.25217378      -0.49120301      -1.55226922       1.06052208      -0.01996148
C        9.05630000       8.82436000      10.22076000      -0.81207000       1.93096000      -0.81555000      -4.07805109       3.93056846       0.13734961      -1.41241360       2.98454285      -0.01041521      -1.29021668       2.87445688      -0.52844751      -0.66916353       2.47503424      -0.07235670      -0.32315391       1.12132585      -0.65953481      -1.41279721       4.09312057       0.37756157      -0.73514938       1.68437767       0.31393212      -0.43975836       1.44388831      -0.93094242      -1.42986321       4.77106571      -0.43627572      -0.52347243       2.93390083      -0.37958145      -0.37769055       0.13046218      -1.08272541      -0.69640005       2.36888123      -0.44420213      -0.52776068       1.57184446      -0.18312880       0.00473571      -2.18811417      -1.73664355       0.73938507      -1.34293509      -1.36460090      -0.33965445      -1.91580725      -1.27794826       0.44930315      -3.17072058      -1.47438920       0.91349775      -0.02972645      -0.87700856       0.71715933       0.67814529      -0.12216735       0.01579529       0.13659960      -1.43799996       0.72913307      -0.38553309      -1.40664411       1.00924182      -4.42582273      -2.24740052       1.38849711       0.00741675      -2.00905991       2.11315513      -3.45511413      -1.92600858      -0.72926688      -5.21391439      -1.54876781      -0.96865469       0.43929827      -0.65074456      -0.49075007       4.22670555       0.58642882      -1.90402961       1.67470896       0.33894688       0.00688109       1.46896422      -0.83131665
C        9.15206000       7.81086000       9.13512000      -0.82949000      -1.06885000      -1.07454000      -1.20796227      -1.88316584      -3.23490953      -1.12814713      -2.08970571      -2.70437288      -1.02248967      -1.50580990      -2.10699987      -1.04480994      -1.31298864      -0.89534950      -0.66829431      -0.79137868       0.05757236      -1.01250958      -1.79913116      -2.82094860      -1.08717728      -1.19114804      -0.84188080      -0.39713886      -0.88003272      -0.11641002      -0.37126398      -1.54502082      -2.78870201      -1.02817106      -1.55828345      -1.29593611      -0.66858691      -0.60301030       0.41399735      -0.08769730      -0.88455427      -1.12370634      -0.45809162      -1.12804139      -1.31430936       0.19435233      -0.11020254       4.07757282      -0.04035759       0.19814056       2.62029839       0.56010628       0.31615767       2.55270648       0.16461200       0.55980694       3.76432848      -0.28341463      -0.14316180       0.02842408      -0.00980324       0.09755952       1.57503152      -0.22047116       0.02639599       0.83772284       0.33315983       0.15637900       0.79190385       0.25091457       1.08769441       5.73205709       0.27306259       0.60363191       2.37928724       2.73110723       1.62741816       6.80216026       0.35023081       1.10411119       3.73433399      -0.48373970      -0.51986021      -0.25687647      -1.33526933      -2.36682177      -4.35495234      -0.54767108      -1.17205274      -1.17857420      -0.76389980      -0.96925032       0.21869951
C        9.77454000       7.61184000      10.53204000      -0.97096000      -1.55469000      -0.69634000       0.96519130      -2.71169043       0.48723733       0.07117573      -1.91368508      -0.33837306       0.29363447      -1.60824609      -0.31056222      -0.13358806      -1.17531514      -0.82032037      -1.38370419      -0.74924141      -1.55854547       0.52186900      -2.48487520       0.17148890      -0.79276609      -0.96881330      -0.59861809      -0.82718658      -1.02946472      -1.34815049       1.05046725      -2.81650305       0.33596939       0.24385020      -1.23642719      -0.61312628      -1.33395243      -0.17622393      -2.17120624      -0.95662975      -1.54545140      -0.62025589      -0.69520736      -0.83604324      -0.81880760      -2.95738244       1.29610777      -3.84881687      -1.70370770       0.86743444      -2.77310610      -2.43262577       0.36787671      -2.42169166      -2.13869476       1.77865338      -3.50336027       0.30519664       1.28402877      -1.56192303       0.39751869      -0.11324050      -1.27557623      -0.42944124       0.64822531      -2.16433144      -0.04499137       0.99719530      -2.34931946      -3.47420692       2.34519339      -4.83980370      -0.26645100       0.98120856      -3.54894137      -3.35091805       3.00326347      -5.44197321       0.21930447       1.33429623      -1.78913176      -2.05239487      -1.03570902      -0.96554476       0.72406787      -1.92632508       0.85593188      -1.04979026      -1.52366328      -0.28574720      -1.05554008      -0.82093471      -1.45257986
C       11.19928000       7.93894000      10.43738000       2.56257000       0.39402000       1.58181000       3.81761980       0.40409273       2.13747573       2.05788779       0.33616972       1.78260231       3.27289176      -0.73238856       2.31680107       2.31972933      -0.32305825       2.00245571       2.19068003      -0.53626871       1.90223026       3.27729368      -0.31092504       1.66283572       2.25773883      -0.53678387       1.71147716       2.19567156      -0.03571329       1.98071551       2.10519910      -0.67434716       1.32900023       2.41477251      -0.19041449       2.09708595       2.32279205       0.01958591       1.78399229       2.39377189      -0.65114772       1.59911299       2.71073771       0.37995324       1.87051415       3.08445525      -1.11339831       1.74098289       2.15115499      -0.61108005       0.78105336       2.93816805      -0.59114295       1.42215967       2.32507300      -0.53281438       1.24513221       0.79686499      -0.26670408       1.13292742       1.31281900       0.34674111       1.00812244       1.11414814      -1.11638439       1.71742070       1.46081376      -0.71274018       1.93107057       3.15144110      -1.16612053       0.86948496       2.08649206      -0.21674705       0.64213151       1.22369289       0.88974047       0.07577741       0.13543829      -0.28653973       0.27421126       3.03549910       0.63378036       1.39982080       2.64422369      -0.23635647       1.58400917       2.70184064      -0.55605483       1.69008327       2.53139925      -0.15236452       1.67332757
C       11.41886000       9.44342000      10.24072000      -1.31370000       0.24907000       0.12974000      -0.70412451       0.31136465      -0.13521802      -0.57112354      -0.11538646       0.14613819      -0.99508524       0.50771165       0.09318453      -1.75316834       0.28499532       0.06803605      -0.84473574       0.75878412      -0.08636552      -1.51975584       0.60185391      -0.26453072      -1.16843987       0.91499835      -0.07322673      -0.98127222       0.33808023       0.30576515      -1.75032818       0.80580372      -0.33822927      -1.72858953      -0.16689909      -0.11114609      -0.95535135       0.09294957       0.13715515      -0.97428191       0.52572715      -0.43562034      -1.41377687      -0.27187449       0.23505682      -1.41825986       0.76397467      -0.42396846      -1.37989688       0.41100025      -0.65899414      -0.65601718       0.20266977      -0.20728862      -1.12660170       0.03112122      -0.23266083      -1.77891695       0.27342001      -1.09164464      -1.61891496      -0.33791125       0.21295473      -1.58405042       0.88494658      -1.04478288      -1.68935215       0.33237821      -0.30618927      -0.17834902       0.31776360      -1.42033303      -1.21614838       0.17525136       0.18586552      -2.95679212      -1.29929912      -1.43743348      -1.82915688      -0.29408354       0.14531097      -1.87453377      -0.62114203      -0.67178386      -0.74948609       0.94371021       0.01391962      -0.69883823       0.46903300       0.17619449      -1.29828966       0.10978103      -0.44561049
O       11.73550000       8.50732000       9.23232000       0.50846000      -0.63142000      -1.18034000       0.51039523      -0.13299507      -1.21378696       0.35627088      -0.28594565      -0.87182605       0.07101449      -0.34286898      -0.97297627       0.84329873      -0.49894607      -1.19623971       0.75329018      -0.23017353      -1.13527346      -0.00233278      -0.65120429      -0.37281165       0.48603752      -0.58777571      -1.01878357       0.65134048      -0.35868615      -1.14427304       0.63887453      -0.48373243      -0.62220794       0.88491750      -0.21772149      -1.22827101       0.50988060      -0.44223237      -1.12216997       0.45800304      -0.17825924      -1.12925422       0.69319129      -0.68751991      -1.40864217       0.79240882      -0.13846797       0.34694105       0.51772225      -0.37323195       0.83574831       0.98551822      -0.20116356       0.04011703       0.55423880      -0.33005238       0.07123047       0.47690633      -0.33537826      -0.58085930       0.90518230      -0.61962593      -0.16511729       0.93277085      -0.20805168      -0.54161984       0.94395995      -0.40326613      -0.98671848      -0.36025572       0.29321459       2.52379823       0.83296269       0.19813383       1.02599001      -0.39608997       0.03677750       2.24364710       2.83100247       0.33002996       1.58392978       0.61459941      -0.39351076      -0.88012028      -0.40596598      -0.71278691      -0.49301299      -0.01850408      -0.57155931      -0.68153799       0.23346849      -0.41661608      -0.69506931
15
Lattice="20.0 0.0 0.0 0.0 20.0 0.0 0.0 0.0 20.0" Properties=species:S:1:pos:R:3:castep_forces:R:3:gomace_forces:R:3:forces_gomace_l0_1:R:3:forces_gomace_l1_1:R:3:forces_gomace_l2_1:R:3:forces_gomace_l0_2:R:3:forces_gomace_l1_2:R:3:forces_gomace_l2_2:R:3:forces_gomace_l0_3:R:3:forces_gomace_l1_3:R:3:forces_gomace_l2_3:R:3:forces_gomace_l0_4:R:3:forces_gomace_l1_4:R:3:forces_gomace_l2_4:R:3:forces_painn_1:R:3:forces_painn_2:R:3:forces_painn_3:R:3:forces_painn_4:R:3:forces_tensornet_1:R:3:forces_tensornet_2:R:3:forces_tensornet_3:R:3:forces_tensornet_4:R:3:forces_schnet_1:R:3:forces_schnet_2:R:3:forces_schnet_3:R:3:forces_schnet_4:R:3:forces_nequip_1:R:3:forces_nequip_2:R:3:forces_nequip_3:R:3:forces_nequip_4:R:3 castep_energy=-1509.60886416 gomace_energy=-1509.3265380859375 energy_gomace_l0_1=-1509.367919921875 energy_gomace_l1_1=-1508.506103515625 energy_gomace_l2_1=-1508.776611328125 energy_gomace_l0_2=-1508.995849609375 energy_gomace_l1_2=-1509.1239013671875 energy_gomace_l2_2=-1508.9600830078125 energy_gomace_l0_3=-1508.99560546875 energy_gomace_l1_3=-1509.107666015625 energy_gomace_l2_3=-1508.658203125 energy_gomace_l0_4=-1508.908447265625 energy_gomace_l1_4=-1508.810302734375 energy_gomace_l2_4=-1508.9423828125 energy_painn_1=-1508.6827392578125 energy_painn_2=-1511.6090087890625 energy_painn_3=-1507.662353515625 energy_painn_4=-1508.770263671875 energy_tensornet_1=-1507.9959716796875 energy_tensornet_2=-1508.565185546875 energy_tensornet_3=-1508.27099609375 energy_tensornet_4=-1507.163330078125 energy_schnet_1=-1506.658935546875 energy_schnet_2=-1508.14501953125 energy_schnet_3=-1509.9600830078125 energy_schnet_4=-1513.3695068359375 energy_nequip_1=-1509.4281005859375 energy_nequip_2=-1509.0926513671875 energy_nequip_3=-1509.51220703125 energy_nequip_4=-1509.1656494140625 pbc="T T T"
H        8.96946000       9.64882000       9.67402000       1.08436000       1.06675000       0.14107000       1.24797368       0.94950008       0.16239007       1.07266176       1.02255368       0.18208201       1.16478288       1.13783765       0.06084499       1.08484721       1.07653165       0.23238237       1.03688002       1.00318670       0.08977890       1.17166078       1.16928315      -0.01675436       1.07982779       1.16469896       0.22441666       1.09410214       0.88932574       0.13754143       1.19784892       1.09864068       0.05821449       1.01820481       1.07964802       0.12196399       1.13618052       1.00291657       0.17973366       1.28304613       1.21441746       0.12094413       1.02512777       1.09445739       0.18135862       1.97037780       1.17840075       0.75675267       1.18301511       0.91839284       0.49935246       1.47332537       0.97194976       0.49531132       1.26030910       0.76917231       0.45812407       1.31012106       1.01901948       0.15183362       1.68595290       1.00303388       0.46343130       1.26448715       0.84328800       0.20879780       0.96403241       1.10572731       0.06724416       1.59720397       0.76290226       0.57738918       2.39555502       0.71411812       0.72052354       2.04303026       0.88821614       0.68266237       2.35438681       0.27166456       0.69492769       1.12747622       0.94176424       0.12051691       1.28801012       1.06619382       0.16098292       1.04238904       0.89308149       0.19623235       1.08905101       0.96461701       0.09875494