18
Lattice="20.0 0.0 0.0 0.0 20.0 0.0 0.0 0.0 20.0" Properties=species:S:1:pos:R:3:old_forces:R:3:new_forces:R:3:castep_forces:R:3:MACE_forces:R:3 -241893.43270931=T old_energy=-10489.491948877672 new_energy=-10478.126724904152 castep_energy=-1703.34880764 MACE_energy=-1703.251220703125 pbc="F F F"
C        8.83623574       8.57942074       9.95570404       0.50431367       0.44819115      -0.29369648       0.55148784       0.54625621      -0.21560841       0.49655000       0.50756000      -0.30484000       0.57532799       0.50283486      -0.31920028
C        7.64526436       9.20976606       9.66733386      -0.27712662      -0.55431524       1.51406700      -0.27641593      -0.52383701       1.49355229      -0.24585000      -0.51600000       1.56948000      -0.26020214      -0.61980963       1.56336355
C        7.52947367      10.57138069       9.91776107       0.07299047       0.78464426       0.24780187       0.00311818       0.68207690       0.19499685       0.12900000       0.75898000       0.25106000       0.14319280       0.83133370       0.29214045
C        8.64379642      11.29418979      10.19635575       2.84157560       3.68304837       0.59912786       3.01720352       3.82503010       0.65716882       2.82857000       3.58002000       0.57842000       2.78561163       3.63537550       0.54736739
C        9.99602497      10.74165827      10.28520608      -2.95877459      -2.09376202       0.20606123      -3.11476583      -2.13613165       0.24660640      -2.94710000      -2.08058000       0.21097000      -2.95603299      -2.12440872       0.22819051
C       11.18719126      11.45249341      10.22271455      -0.26138376       1.77650475      -1.04866100      -0.28815903       1.89783695      -0.93616809      -0.25620000       1.68708000      -1.07640000      -0.32477379       1.80515909      -1.16906703
C       12.35587894      10.81714451       9.96218285       1.37093823      -1.96831310      -1.42427777       1.43353667      -2.23618793      -1.42444762       1.31803000      -1.97320000      -1.42711000       1.34717274      -1.85278654      -1.38869119
C       12.43801367       9.37630390       9.66687454       1.09509060       1.83264426       1.29638887       1.29705171       2.10415226       1.30771001       1.03362000       1.83138000       1.34209000       0.98593277       1.63701558       1.31074858
C       11.34986122       8.67150385       9.98930820      -3.48208010      -1.10190054       0.28656554      -3.70192197      -1.07944308       0.41022576      -3.45451000      -1.03271000       0.26798000      -3.37256241      -1.02584457       0.17969316
C       10.03797181       9.27250654      10.27203567       1.18675981       1.50464708      -1.37295821       1.27463930       1.47741877      -1.37050685       1.17425000       1.50912000      -1.40821000       1.08262157       1.49208605      -1.39127684
H        8.88966796       7.54584887       9.71813349       0.20550924      -1.24424932       0.12488493       0.22073575      -1.63652842       0.05602630       0.19611000      -1.24148000       0.13399000       0.17751803      -1.15903449       0.11038554
H        6.73786037       8.62534255       9.61136598      -0.22874704      -0.32678719      -0.62910660      -0.53710056      -0.52054975      -0.68009391      -0.21512000      -0.30464000      -0.65162000      -0.17278552      -0.30530930      -0.62264532
H        6.60182229      11.10972730       9.98300759      -0.72246280      -0.00810524      -0.37945974      -1.04127274       0.17887613      -0.36610625      -0.70895000      -0.01769000      -0.37277000      -0.63198626      -0.01269474      -0.37023506
H        8.63456941      12.49806792      10.31834556      -0.35536595      -2.67004707      -0.24299491      -0.35146057      -2.50656352      -0.22651914      -0.35133000      -2.64859000      -0.24722000      -0.34557152      -2.72167921      -0.23800111
H       11.12576883      12.53301183       9.91480144       0.10799707      -0.62005168       1.02951116       0.08389870      -0.34409632       0.98961465       0.09825000      -0.61252000       1.03040000       0.12557836      -0.68099320       1.05339539
H       13.21860165      11.39546420       9.69292061       0.56467415       0.48381285       0.03224402       0.88054171       0.68624060      -0.05236242       0.56646000       0.46417000       0.04494000       0.49688455       0.46229872       0.09346187
H       13.34648832       8.84388967       9.31922338      -0.31383231       0.66107232       0.19105936      -0.05891514       0.50986980       0.08508964      -0.30888000       0.65734000       0.17533000      -0.31611624       0.63598502       0.19354907
H       11.21043040       7.61109049       9.82845110       0.64619145      -0.58519997      -0.13124387       0.60779834      -0.92442005      -0.16917804       0.64710000      -0.56823000      -0.11649000       0.66019011      -0.49952883      -0.07317890
