18
Lattice="20.0 0.0 0.0 0.0 20.0 0.0 0.0 0.0 20.0" Properties=species:S:1:pos:R:3:phonopy_masses:R:1:spice_forces:R:3:forces:R:3 spice_energy=-10507.878644747696 energy=-10507.878648784486 pbc="T T T"
C        8.80406848       8.55838622       9.82941469      12.01070000      -0.45350572       0.11999930       0.02348270      -0.45350572       0.11999930       0.02348270
C        7.58892634       9.20106148       9.92092466      12.01070000       0.27310975      -0.13407367      -0.01949588       0.27310975      -0.13407367      -0.01949588
C        7.53332314      10.61318838      10.04345704      12.01070000       0.22818655       0.13977327       0.00508512       0.22818655       0.13977327       0.00508512
C        8.69295856      11.35478948      10.07205904      12.01070000      -0.37145629      -0.14756684      -0.00144652      -0.37145629      -0.14756684      -0.00144652
C        9.95989500      10.72332307       9.97991713      12.01070000       0.01605748      -0.53544461      -0.04631874       0.01605748      -0.53544461      -0.04631874
C       11.17303305      11.45814701      10.00633199      12.01070000       0.39132884      -0.11597559      -0.02170471       0.39132884      -0.11597559      -0.02170471
C       12.38717600      10.81547377       9.91482192      12.01070000      -0.24361413       0.13079854       0.01852179      -0.24361413       0.13079854       0.01852179
C       12.44277966       9.40334704       9.79228881      12.01070000      -0.23277127      -0.15127246      -0.00596609      -0.23277127      -0.15127246      -0.00596609
C       11.28314436       8.66174530       9.76368687      12.01070000       0.38567377       0.14933767       0.00117935       0.38567377       0.14933767       0.00117935
C       10.01620702       9.29320951       9.85582711      12.01070000      -0.00053151       0.54632640       0.04696987      -0.00053151       0.54632640       0.04696987
H        8.84260732       7.47274196       9.73531142       1.00794000       0.02200444       0.31093211       0.02605837       0.02200444       0.31093211       0.02605837
H        6.66717137       8.62026345       9.89892867       1.00794000       0.25892608       0.19868450       0.00921803       0.25892608       0.19868450       0.00921803
H        6.56892552      11.11538082      10.11544069       1.00794000       0.27181206      -0.17783947      -0.02342013       0.27181206      -0.17783947      -0.02342013
H        8.64701439      12.44016683      10.16633698       1.00794000       0.04064845      -0.30940419      -0.02770385       0.04064845      -0.30940419      -0.02770385
H       11.13349172      12.54379124      10.10043816       1.00794000      -0.01608842      -0.31184437      -0.02620421      -0.01608842      -0.31184437      -0.02620421
H       13.30893054      11.39627222       9.93681963       1.00794000      -0.25714983      -0.19992690      -0.00938795      -0.25714983      -0.19992690      -0.00938795
H       13.40717789       8.90115512       9.72030683       1.00794000      -0.27195946       0.17793528       0.02341555      -0.27195946       0.17793528       0.02341555
H       11.32909098       7.57636771       9.66941407       1.00794000      -0.04066869       0.30956224       0.02771733      -0.04066869       0.30956224       0.02771733
18
Lattice="20.0 0.0 0.0 0.0 20.0 0.0 0.0 0.0 20.0" Properties=species:S:1:pos:R:3:phonopy_masses:R:1:spice_forces:R:3:forces:R:3 spice_energy=-10507.879420833091 energy=-10507.879424880024 pbc="T T T"
C        8.80206848       8.55838622       9.82941469      12.01070000      -0.32416834       0.11203997       0.01974647      -0.32416834       0.11203997       0.01974647
C        7.58892634       9.20106148       9.92092466      12.01070000       0.21127922      -0.12254804      -0.01703234       0.21127922      -0.12254804      -0.01703234
C        7.53332314      10.61318838      10.04345704      12.01070000       0.23456025       0.15638207       0.00636004       0.23456025       0.15638207       0.00636004
C        8.69295856      11.35478948      10.07205904      12.01070000      -0.38541282      -0.14849102      -0.00112933      -0.38541282      -0.14849102      -0.00112933
C        9.95989500      10.72332307       9.97991713      12.01070000       0.02643193      -0.54402124      -0.04733039       0.02643193      -0.54402124      -0.04733039
C       11.17303305      11.45814701      10.00633199      12.01070000       0.38644666      -0.11616561      -0.02154214       0.38644666      -0.11616561      -0.02154214
C       12.38717600      10.81547377       9.91482192      12.01070000      -0.24094310       0.12593413       0.01802051      -0.24094310       0.12593413       0.01802051
C       12.44277966       9.40334704       9.79228881      12.01070000      -0.23000192      -0.14491043      -0.00547088      -0.23000192      -0.14491043      -0.00547088
C       11.28314436       8.66174530       9.76368687      12.01070000       0.37130271       0.14676992       0.00141534       0.37130271       0.14676992       0.00141534
C       10.01620702       9.29320951       9.85582711      12.01070000      -0.04189228       0.53318723       0.04669616      -0.04189228       0.53318723       0.04669616
H        8.84260732       7.47274196       9.73531142       1.00794000       0.01013236       0.31257872       0.02632789       0.01013236       0.31257872       0.02632789
H        6.66717137       8.62026345       9.89892867       1.00794000       0.25529541       0.20127489       0.00957250       0.25529541       0.20127489       0.00957250
H        6.56892552      11.11538082      10.11544069       1.00794000       0.27215411      -0.17801778      -0.02341430       0.27215411      -0.17801778      -0.02341430
H        8.64701439      12.44016683      10.16633698       1.00794000       0.04039533      -0.30943410      -0.02770413       0.04039533      -0.30943410      -0.02770413
H       11.13349172      12.54379124      10.10043816       1.00794000      -0.01603973      -0.31170686      -0.02619408      -0.01603973      -0.31170686      -0.02619408
H       13.30893054      11.39627222       9.93681963       1.00794000      -0.25709817      -0.20004315      -0.00940427      -0.25709817      -0.20004315      -0.00940427
H       13.40717789       8.90115512       9.72030683       1.00794000      -0.27204746       0.17792126       0.02341808      -0.27204746       0.17792126       0.02341808
H       11.32909098       7.57636771       9.66941407       1.00794000      -0.04039649       0.30924884       0.02766488      -0.04039649       0.30924884       0.02766488
18
Lattice="20.0 0.0 0.0 0.0 20.0 0.0 0.0 0.0 20.0" Properties=species:S:1:pos:R:3:phonopy_masses:R:1:spice_forces:R:3:forces:R:3 spice_energy=-10507.879198757917 energy=-10507.87920279609 pbc="T T T"
C        8.80306848       8.55938622       9.82941469      12.01070000      -0.38487924       0.04707866       0.01678291      -0.38487924       0.04707866       0.01678291
C        7.58892634       9.20106148       9.92092466      12.01070000       0.22948247      -0.11036619      -0.01688940       0.22948247      -0.11036619      -0.01688940
C        7.53332314      10.61318838      10.04345704      12.01070000       0.22832719       0.15030863       0.00606938       0.22832719       0.15030863       0.00606938
C        8.69295856      11.35478948      10.07205904      12.01070000      -0.37831826      -0.14797046      -0.00131991      -0.37831826      -0.14797046      -0.00131991
C        9.95989500      10.72332307       9.97991713      12.01070000       0.02371759      -0.53752639      -0.04666001       0.02371759      -0.53752639      -0.04666001
C       11.17303305      11.45814701      10.00633199      12.01070000       0.38894439      -0.11554468      -0.02153590       0.38894439      -0.11554468      -0.02153590
C       12.38717600      10.81547377       9.91482192      12.01070000      -0.24252728       0.12870622       0.01830129      -0.24252728       0.12870622       0.01830129
C       12.44277966       9.40334704       9.79228881      12.01070000      -0.23204856      -0.14831514      -0.00566918      -0.23204856      -0.14831514      -0.00566918
C       11.28314436       8.66174530       9.76368687      12.01070000       0.37789062       0.14652069       0.00121660       0.37789062       0.14652069       0.00121660
C       10.01620702       9.29320951       9.85582711      12.01070000      -0.01139677       0.55692079       0.04744960      -0.01139677       0.55692079       0.04744960
H        8.84260732       7.47274196       9.73531142       1.00794000       0.01531223       0.34261726       0.02852973       0.01531223       0.34261726       0.02852973
H        6.66717137       8.62026345       9.89892867       1.00794000       0.25878210       0.19886138       0.00928265       0.25878210       0.19886138       0.00928265
H        6.56892552      11.11538082      10.11544069       1.00794000       0.27199637      -0.17737725      -0.02332560       0.27199637      -0.17737725      -0.02332560
H        8.64701439      12.44016683      10.16633698       1.00794000       0.04053378      -0.30944569      -0.02771420       0.04053378      -0.30944569      -0.02771420
H       11.13349172      12.54379124      10.10043816       1.00794000      -0.01593785      -0.31167529      -0.02619446      -0.01593785      -0.31167529      -0.02619446
H       13.30893054      11.39627222       9.93681963       1.00794000      -0.25710583      -0.19997814      -0.00940276      -0.25710583      -0.19997814      -0.00940276
H       13.40717789       8.90115512       9.72030683       1.00794000      -0.27210644       0.17786199       0.02341594      -0.27210644       0.17786199       0.02341594
H       11.32909098       7.57636771       9.66941407       1.00794000      -0.04066837       0.30932270       0.02766340      -0.04066837       0.30932270       0.02766340
18
Lattice="20.0 0.0 0.0 0.0 20.0 0.0 0.0 0.0 20.0" Properties=species:S:1:pos:R:3:phonopy_masses:R:1:spice_forces:R:3:forces:R:3 spice_energy=-10507.878938798745 energy=-10507.878942844362 pbc="T T T"
C        8.80306848       8.55738622       9.82941469      12.01070000      -0.39279457       0.18533694       0.02647954      -0.39279457       0.18533694       0.02647954
C        7.58892634       9.20106148       9.92092466      12.01070000       0.25505498      -0.14633563      -0.01964952       0.25505498      -0.14633563      -0.01964952
C        7.53332314      10.61318838      10.04345704      12.01070000       0.23446259       0.14582815       0.00537328       0.23446259       0.14582815       0.00537328
C        8.69295856      11.35478948      10.07205904      12.01070000      -0.37848185      -0.14820649      -0.00126865      -0.37848185      -0.14820649      -0.00126865
C        9.95989500      10.72332307       9.97991713      12.01070000       0.01879410      -0.54189957      -0.04698547       0.01879410      -0.54189957      -0.04698547
C       11.17303305      11.45814701      10.00633199      12.01070000       0.38871278      -0.11670417      -0.02171676       0.38871278      -0.11670417      -0.02171676
C       12.38717600      10.81547377       9.91482192      12.01070000      -0.24205581       0.12797731       0.01823751      -0.24205581       0.12797731       0.01823751
C       12.44277966       9.40334704       9.79228881      12.01070000      -0.23073315      -0.14782743      -0.00576414      -0.23073315      -0.14782743      -0.00576414
C       11.28314436       8.66174530       9.76368687      12.01070000       0.37897012       0.14957322       0.00138035       0.37897012       0.14957322       0.00138035
C       10.01620702       9.29320951       9.85582711      12.01070000      -0.03109158       0.52261415       0.04622269      -0.03109158       0.52261415       0.04622269
H        8.84260732       7.47274196       9.73531142       1.00794000       0.01684132       0.28065295       0.02383065       0.01684132       0.28065295       0.02383065
H        6.66717137       8.62026345       9.89892867       1.00794000       0.25542401       0.20108774       0.00950712       0.25542401       0.20108774       0.00950712
H        6.56892552      11.11538082      10.11544069       1.00794000       0.27194761      -0.17845946      -0.02350619       0.27194761      -0.17845946      -0.02350619
H        8.64701439      12.44016683      10.16633698       1.00794000       0.04051522      -0.30931352      -0.02768718       0.04051522      -0.30931352      -0.02768718
H       11.13349172      12.54379124      10.10043816       1.00794000      -0.01619647      -0.31179239      -0.02619646      -0.01619647      -0.31179239      -0.02619646
H       13.30893054      11.39627222       9.93681963       1.00794000      -0.25710570      -0.19996266      -0.00938796      -0.25710570      -0.19996266      -0.00938796
H       13.40717789       8.90115512       9.72030683       1.00794000      -0.27186944       0.17798244       0.02341579      -0.27186944       0.17798244       0.02341579
H       11.32909098       7.57636771       9.66941407       1.00794000      -0.04039224       0.30944938       0.02771537      -0.04039224       0.30944938       0.02771537
18
Lattice="20.0 0.0 0.0 0.0 20.0 0.0 0.0 0.0 20.0" Properties=species:S:1:pos:R:3:phonopy_masses:R:1:spice_forces:R:3:forces:R:3 spice_energy=-10507.879126758038 energy=-10507.879130799773 pbc="T T T"
C        8.80306848       8.55838622       9.83041469      12.01070000      -0.38692486       0.11130887       0.00728444      -0.38692486       0.11130887       0.00728444
C        7.58892634       9.20106148       9.92092466      12.01070000       0.24047637      -0.12717609      -0.01176524       0.24047637      -0.12717609      -0.01176524
C        7.53332314      10.61318838      10.04345704      12.01070000       0.23121091       0.14855962       0.00501738       0.23121091       0.14855962       0.00501738
C        8.69295856      11.35478948      10.07205904      12.01070000      -0.37854648      -0.14811257      -0.00089803      -0.37854648      -0.14811257      -0.00089803
C        9.95989500      10.72332307       9.97991713      12.01070000       0.02160992      -0.53965400      -0.04740932       0.02160992      -0.53965400      -0.04740932
C       11.17303305      11.45814701      10.00633199      12.01070000       0.38869470      -0.11602598      -0.02213592       0.38869470      -0.11602598      -0.02213592
C       12.38717600      10.81547377       9.91482192      12.01070000      -0.24227400       0.12827647       0.01833858      -0.24227400       0.12827647       0.01833858
C       12.44277966       9.40334704       9.79228881      12.01070000      -0.23143948      -0.14792365      -0.00626980      -0.23143948      -0.14792365      -0.00626980
C       11.28314436       8.66174530       9.76368687      12.01070000       0.37808321       0.14796045       0.00091809       0.37808321       0.14796045       0.00091809
C       10.01620702       9.29320951       9.85582711      12.01070000      -0.02084142       0.54046137       0.05341019      -0.02084142       0.54046137       0.05341019
H        8.84260732       7.47274196       9.73531142       1.00794000       0.01594562       0.31406744       0.03019502       0.01594562       0.31406744       0.03019502
H        6.66717137       8.62026345       9.89892867       1.00794000       0.25716824       0.19994315       0.00899904       0.25716824       0.19994315       0.00899904
H        6.56892552      11.11538082      10.11544069       1.00794000       0.27194889      -0.17782497      -0.02392978       0.27194889      -0.17782497      -0.02392978
H        8.64701439      12.44016683      10.16633698       1.00794000       0.04052342      -0.30938702      -0.02761324       0.04052342      -0.30938702      -0.02761324
H       11.13349172      12.54379124      10.10043816       1.00794000      -0.01605377      -0.31171531      -0.02619238      -0.01605377      -0.31171531      -0.02619238
H       13.30893054      11.39627222       9.93681963       1.00794000      -0.25708286      -0.19997249      -0.00931688      -0.25708286      -0.19997249      -0.00931688
H       13.40717789       8.90115512       9.72030683       1.00794000      -0.27197276       0.17790255       0.02339470      -0.27197276       0.17790255       0.02339470
H       11.32909098       7.57636771       9.66941407       1.00794000      -0.04052589       0.30931214       0.02797220      -0.04052589       0.30931214       0.02797220
18
Lattice="20.0 0.0 0.0 0.0 20.0 0.0 0.0 0.0 20.0" Properties=species:S:1:pos:R:3:phonopy_masses:R:1:spice_forces:R:3:forces:R:3 spice_energy=-10507.87908920416 energy=-10507.87909324617 pbc="T T T"
C        8.80306848       8.55838622       9.82841469      12.01070000      -0.39064775       0.12100819       0.03596508      -0.39064775       0.12100819       0.03596508
C        7.58892634       9.20106148       9.92092466      12.01070000       0.24413273      -0.12950374      -0.02477856       0.24413273      -0.12950374      -0.02477856
C        7.53332314      10.61318838      10.04345704      12.01070000       0.23158888       0.14754544       0.00642130       0.23158888       0.14754544       0.00642130
C        8.69295856      11.35478948      10.07205904      12.01070000      -0.37816608      -0.14805592      -0.00169218      -0.37816608      -0.14805592      -0.00169218
C        9.95989500      10.72332307       9.97991713      12.01070000       0.02090441      -0.53984779      -0.04624377       0.02090441      -0.53984779      -0.04624377
C       11.17303305      11.45814701      10.00633199      12.01070000       0.38888069      -0.11622658      -0.02111464       0.38888069      -0.11622658      -0.02111464
C       12.38717600      10.81547377       9.91482192      12.01070000      -0.24232532       0.12838054       0.01819838      -0.24232532       0.12838054       0.01819838
C       12.44277966       9.40334704       9.79228881      12.01070000      -0.23137409      -0.14818737      -0.00516010      -0.23137409      -0.14818737      -0.00516010
C       11.28314436       8.66174530       9.76368687      12.01070000       0.37867318       0.14821181       0.00168973       0.37867318       0.14821181       0.00168973
C       10.01620702       9.29320951       9.85582711      12.01070000      -0.02168937       0.53904410       0.04025820      -0.02168937       0.53904410       0.04025820
H        8.84260732       7.47274196       9.73531142       1.00794000       0.01619999       0.30935832       0.02218874       0.01619999       0.30935832       0.02218874
H        6.66717137       8.62026345       9.89892867       1.00794000       0.25701109       0.19998518       0.00978983       0.25701109       0.19998518       0.00978983
H        6.56892552      11.11538082      10.11544069       1.00794000       0.27196739      -0.17800115      -0.02290037       0.27196739      -0.17800115      -0.02290037
H        8.64701439      12.44016683      10.16633698       1.00794000       0.04052255      -0.30934842      -0.02778595       0.04052255      -0.30934842      -0.02778595
H       11.13349172      12.54379124      10.10043816       1.00794000      -0.01608071      -0.31173024      -0.02619664      -0.01608071      -0.31173024      -0.02619664
H       13.30893054      11.39627222       9.93681963       1.00794000      -0.25709787      -0.19995512      -0.00947360      -0.25709787      -0.19995512      -0.00947360
H       13.40717789       8.90115512       9.72030683       1.00794000      -0.27196540       0.17792064       0.02343398      -0.27196540       0.17792064       0.02343398
H       11.32909098       7.57636771       9.66941407       1.00794000      -0.04053405       0.30940217       0.02740154      -0.04053405       0.30940217       0.02740154
18
Lattice="20.0 0.0 0.0 0.0 20.0 0.0 0.0 0.0 20.0" Properties=species:S:1:pos:R:3:phonopy_masses:R:1:spice_forces:R:3:forces:R:3 spice_energy=-10507.879304077398 energy=-10507.879308119744 pbc="T T T"
C        8.80306848       8.55838622       9.82941469      12.01070000      -0.35787713       0.10326280       0.01978255      -0.35787713       0.10326280       0.01978255
C        7.58992634       9.20106148       9.92092466      12.01070000       0.17121765      -0.13026050      -0.01671317       0.17121765      -0.13026050      -0.01671317
C        7.53332314      10.61318838      10.04345704      12.01070000       0.24388718       0.15111822       0.00579545       0.24388718       0.15111822       0.00579545
C        8.69295856      11.35478948      10.07205904      12.01070000      -0.38247719      -0.14552922      -0.00097540      -0.38247719      -0.14552922      -0.00097540
C        9.95989500      10.72332307       9.97991713      12.01070000       0.02385472      -0.54140793      -0.04702687       0.02385472      -0.54140793      -0.04702687
C       11.17303305      11.45814701      10.00633199      12.01070000       0.38750421      -0.11634768      -0.02160310       0.38750421      -0.11634768      -0.02160310
C       12.38717600      10.81547377       9.91482192      12.01070000      -0.24149564       0.12716780       0.01814431      -0.24149564       0.12716780       0.01814431
C       12.44277966       9.40334704       9.79228881      12.01070000      -0.23062892      -0.14671129      -0.00562296      -0.23062892      -0.14671129      -0.00562296
C       11.28314436       8.66174530       9.76368687      12.01070000       0.37678221       0.14853938       0.00137362       0.37678221       0.14853938       0.00137362
C       10.01620702       9.29320951       9.85582711      12.01070000      -0.01466836       0.54079837       0.04670572      -0.01466836       0.54079837       0.04670572
H        8.84260732       7.47274196       9.73531142       1.00794000       0.01569487       0.31197208       0.02621006       0.01569487       0.31197208       0.02621006
H        6.66717137       8.62026345       9.89892867       1.00794000       0.28123353       0.21151418       0.00977454       0.28123353       0.21151418       0.00977454
H        6.56892552      11.11538082      10.11544069       1.00794000       0.27173012      -0.18066712      -0.02365168       0.27173012      -0.18066712      -0.02365168
H        8.64701439      12.44016683      10.16633698       1.00794000       0.04092173      -0.30907122      -0.02771059       0.04092173      -0.30907122      -0.02771059
H       11.13349172      12.54379124      10.10043816       1.00794000      -0.01608539      -0.31173621      -0.02619483      -0.01608539      -0.31173621      -0.02619483
H       13.30893054      11.39627222       9.93681963       1.00794000      -0.25709803      -0.19999140      -0.00939776      -0.25709803      -0.19999140      -0.00939776
H       13.40717789       8.90115512       9.72030683       1.00794000      -0.27194339       0.17796703       0.02342011      -0.27194339       0.17796703       0.02342011
H       11.32909098       7.57636771       9.66941407       1.00794000      -0.04054929       0.30937890       0.02768963      -0.04054929       0.30937890       0.02768963
18
Lattice="20.0 0.0 0.0 0.0 20.0 0.0 0.0 0.0 20.0" Properties=species:S:1:pos:R:3:phonopy_masses:R:1:spice_forces:R:3:forces:R:3 spice_energy=-10507.87881590485 energy=-10507.878819946185 pbc="T T T"
C        8.80306848       8.55838622       9.82941469      12.01070000      -0.41970952       0.12883262       0.02344822      -0.41970952       0.12883262       0.02344822
C        7.58792634       9.20106148       9.92092466      12.01070000       0.31328644      -0.12626881      -0.01981199       0.31328644      -0.12626881      -0.01981199
C        7.53332314      10.61318838      10.04345704      12.01070000       0.21887880       0.14502394       0.00564800       0.21887880       0.14502394       0.00564800
C        8.69295856      11.35478948      10.07205904      12.01070000      -0.37439471      -0.15061341      -0.00160782      -0.37439471      -0.15061341      -0.00160782
C        9.95989500      10.72332307       9.97991713      12.01070000       0.01868167      -0.53801108      -0.04661949       0.01868167      -0.53801108      -0.04661949
C       11.17303305      11.45814701      10.00633199      12.01070000       0.39016281      -0.11585601      -0.02164591       0.39016281      -0.11585601      -0.02164591
C       12.38717600      10.81547377       9.91482192      12.01070000      -0.24307051       0.12952718       0.01839490      -0.24307051       0.12952718       0.01839490
C       12.44277966       9.40334704       9.79228881      12.01070000      -0.23213889      -0.14944752      -0.00581225      -0.23213889      -0.14944752      -0.00581225
C       11.28314436       8.66174530       9.76368687      12.01070000       0.38010829       0.14750535       0.00121854       0.38010829       0.14750535       0.00121854
C       10.01620702       9.29320951       9.85582711      12.01070000      -0.02782852       0.53872531       0.04696390      -0.02782852       0.53872531       0.04696390
H        8.84260732       7.47274196       9.73531142       1.00794000       0.01644787       0.31153976       0.02617612       0.01644787       0.31153976       0.02617612
H        6.66717137       8.62026345       9.89892867       1.00794000       0.23289327       0.18836030       0.00901281       0.23289327       0.18836030       0.00901281
H        6.56892552      11.11538082      10.11544069       1.00794000       0.27224230      -0.17518161      -0.02318200       0.27224230      -0.17518161      -0.02318200
H        8.64701439      12.44016683      10.16633698       1.00794000       0.04012783      -0.30972899      -0.02769435       0.04012783      -0.30972899      -0.02769435
H       11.13349172      12.54379124      10.10043816       1.00794000      -0.01604052      -0.31176561      -0.02619930      -0.01604052      -0.31176561      -0.02619930
H       13.30893054      11.39627222       9.93681963       1.00794000      -0.25711034      -0.19995321      -0.00939339      -0.25711034      -0.19995321      -0.00939339
H       13.40717789       8.90115512       9.72030683       1.00794000      -0.27203251       0.17788454       0.02341223      -0.27203251       0.17788454       0.02341223
H       11.32909098       7.57636771       9.66941407       1.00794000      -0.04050663       0.30943101       0.02769219      -0.04050663       0.30943101       0.02769219
18
Lattice="20.0 0.0 0.0 0.0 20.0 0.0 0.0 0.0 20.0" Properties=species:S:1:pos:R:3:phonopy_masses:R:1:spice_forces:R:3:forces:R:3 spice_energy=-10507.878927639325 energy=-10507.878931676736 pbc="T T T"
C        8.80306848       8.55838622       9.82941469      12.01070000      -0.39459722       0.13411614       0.02279219      -0.39459722       0.13411614       0.02279219
C        7.58892634       9.20206148       9.92092466      12.01070000       0.24031806      -0.18991641      -0.02229738       0.24031806      -0.18991641      -0.02229738
C        7.53332314      10.61318838      10.04345704      12.01070000       0.22723592       0.17508773       0.00762243       0.22723592       0.17508773       0.00762243
C        8.69295856      11.35478948      10.07205904      12.01070000      -0.37062918      -0.14494447      -0.00119467      -0.37062918      -0.14494447      -0.00119467
C        9.95989500      10.72332307       9.97991713      12.01070000       0.01662082      -0.53699497      -0.04650594       0.01662082      -0.53699497      -0.04650594
C       11.17303305      11.45814701      10.00633199      12.01070000       0.39121965      -0.11576865      -0.02167439       0.39121965      -0.11576865      -0.02167439
C       12.38717600      10.81547377       9.91482192      12.01070000      -0.24346712       0.13040306       0.01848299      -0.24346712       0.13040306       0.01848299
C       12.44277966       9.40334704       9.79228881      12.01070000      -0.23253473      -0.15026807      -0.00587115      -0.23253473      -0.15026807      -0.00587115
C       11.28314436       8.66174530       9.76368687      12.01070000       0.38145425       0.14812684       0.00126298       0.38145425       0.14812684       0.00126298
C       10.01620702       9.29320951       9.85582711      12.01070000      -0.02483340       0.53519457       0.04660845      -0.02483340       0.53519457       0.04660845
H        8.84260732       7.47274196       9.73531142       1.00794000       0.01332887       0.31275581       0.02639734       0.01332887       0.31275581       0.02639734
H        6.66717137       8.62026345       9.89892867       1.00794000       0.26855658       0.21319560       0.00984871       0.26855658       0.21319560       0.00984871
H        6.56892552      11.11538082      10.11544069       1.00794000       0.27214363      -0.17715389      -0.02333326       0.27214363      -0.17715389      -0.02333326
H        8.64701439      12.44016683      10.16633698       1.00794000       0.04076739      -0.30942683      -0.02764265       0.04076739      -0.30942683      -0.02764265
H       11.13349172      12.54379124      10.10043816       1.00794000      -0.01603645      -0.31174629      -0.02619828      -0.01603645      -0.31174629      -0.02619828
H       13.30893054      11.39627222       9.93681963       1.00794000      -0.25712296      -0.19992918      -0.00939033      -0.25712296      -0.19992918      -0.00939033
H       13.40717789       8.90115512       9.72030683       1.00794000      -0.27195716       0.17789299       0.02340734      -0.27195716       0.17789299       0.02340734
H       11.32909098       7.57636771       9.66941407       1.00794000      -0.04047372       0.30937758       0.02768596      -0.04047372       0.30937758       0.02768596
18