18
Lattice="25.0 0.0 0.0 0.0 25.0 0.0 0.0 0.0 25.0" Properties=species:S:1:pos:R:3:castep_forces:R:3:forces:R:3 energy=-1704.763345125 free_energy=-1704.763345125 pbc="T T T"
C        8.80407500       8.55837500       9.82942500      -0.07057000       0.06011000       0.00683000       0.04975000      -0.05446000      -0.01024000
C        7.58892500       9.20105000       9.92092500      -0.02593000       0.13678000       0.01253000      -0.06258000       0.00398000       0.00011000
C        7.53332500      10.61320000      10.04345000      -0.04728000      -0.15493000      -0.01184000      -0.05537000      -0.01147000       0.00369000
C        8.69295000      11.35480000      10.07205000       0.00454000      -0.05461000      -0.00515000       0.02118000       0.05175000       0.00124000
C        9.95990000      10.72332500       9.97992500      -0.00183000       0.01125000       0.00103000      -0.04288000       0.04889000       0.00833000
C       11.17302500      11.45815000      10.00632500       0.00932000      -0.05423000      -0.00502000       0.06277000      -0.00741000      -0.00231000
C       12.38717500      10.81547500       9.91482500       0.05830000      -0.14197000      -0.01421000       0.05031000       0.00986000       0.00004000
C       12.44277500       9.40335000       9.79230000       0.04654000       0.14797000       0.01110000      -0.02693000      -0.04917000      -0.00044000
C       11.28315000       8.66175000       9.76367500       0.00812000       0.05739000       0.00483000      -0.07057000       0.06011000       0.00683000
C       10.01620000       9.29320000       9.85582500       0.02254000       0.00028000      -0.00050000      -0.02593000       0.13678000       0.01253000
H        8.84260000       7.47275000       9.73530000       0.04975000      -0.05446000      -0.01024000      -0.04728000      -0.15493000      -0.01184000
H        6.66717500       8.62027500       9.89892500      -0.06258000       0.00398000       0.00011000       0.00454000      -0.05461000      -0.00515000
H        6.56892500      11.11537500      10.11545000      -0.05537000      -0.01147000       0.00369000      -0.00183000       0.01125000       0.00103000
H        8.64702500      12.44017500      10.16632500       0.02118000       0.05175000       0.00124000       0.00932000      -0.05423000      -0.00502000
H       11.13350000      12.54380000      10.10045000      -0.04288000       0.04889000       0.00833000       0.05830000      -0.14197000      -0.01421000
H       13.30892500      11.39627500       9.93682500       0.06277000      -0.00741000      -0.00231000       0.04654000       0.14797000       0.01110000
H       13.40717500       8.90115000       9.72030000       0.05031000       0.00986000       0.00004000       0.00812000       0.05739000       0.00483000
H       11.32910000       7.57637500       9.66942500      -0.02693000      -0.04917000      -0.00044000       0.02254000       0.00028000      -0.00050000
18
Lattice="25.0 0.0 0.0 0.0 25.0 0.0 0.0 0.0 25.0" Properties=species:S:1:pos:R:3:castep_forces:R:3:forces:R:3 energy=-1704.763355924 free_energy=-1704.763355924 pbc="T T T"
C        8.80207500       8.55837500       9.82942500       0.05663000       0.05190000       0.00303000       0.03941000      -0.05265000      -0.00997000
C        7.58892500       9.20105000       9.92092500      -0.08722000       0.15241000       0.01537000      -0.06624000       0.00666000       0.00047000
C        7.53332500      10.61320000      10.04345000      -0.04324000      -0.14281000      -0.01088000      -0.05496000      -0.01174000       0.00368000
C        8.69295000      11.35480000      10.07205000      -0.00436000      -0.05583000      -0.00501000       0.02098000       0.05177000       0.00124000
C        9.95990000      10.72332500       9.97992500       0.00379000       0.00386000       0.00026000      -0.04281000       0.04908000       0.00834000
C       11.17302500      11.45815000      10.00632500       0.00743000      -0.05429000      -0.00494000       0.06272000      -0.00755000      -0.00232000
C       12.38717500      10.81547500       9.91482500       0.05957000      -0.14485000      -0.01449000       0.05017000       0.00985000       0.00005000
C       12.44277500       9.40335000       9.79230000       0.04825000       0.15238000       0.01145000      -0.02665000      -0.04943000      -0.00049000
C       11.28315000       8.66175000       9.76367500      -0.00421000       0.05513000       0.00502000       0.05663000       0.05190000       0.00303000
C       10.01620000       9.29320000       9.85582500      -0.01926000      -0.01388000      -0.00082000      -0.08722000       0.15241000       0.01537000
H        8.84260000       7.47275000       9.73530000       0.03941000      -0.05265000      -0.00997000      -0.04324000      -0.14281000      -0.01088000
H        6.66717500       8.62027500       9.89892500      -0.06624000       0.00666000       0.00047000      -0.00436000      -0.05583000      -0.00501000
H        6.56892500      11.11537500      10.11545000      -0.05496000      -0.01174000       0.00368000       0.00379000       0.00386000       0.00026000
H        8.64702500      12.44017500      10.16632500       0.02098000       0.05177000       0.00124000       0.00743000      -0.05429000      -0.00494000
H       11.13350000      12.54380000      10.10045000      -0.04281000       0.04908000       0.00834000       0.05957000      -0.14485000      -0.01449000
H       13.30892500      11.39627500       9.93682500       0.06272000      -0.00755000      -0.00232000       0.04825000       0.15238000       0.01145000
H       13.40717500       8.90115000       9.72030000       0.05017000       0.00985000       0.00005000      -0.00421000       0.05513000       0.00502000
H       11.32910000       7.57637500       9.66942500      -0.02665000      -0.04943000      -0.00049000      -0.01926000      -0.01388000      -0.00082000
18
Lattice="25.0 0.0 0.0 0.0 25.0 0.0 0.0 0.0 25.0" Properties=species:S:1:pos:R:3:castep_forces:R:3:forces:R:3 energy=-1704.763408637 free_energy=-1704.763408637 pbc="T T T"
C        8.80307500       8.55937500       9.82942500      -0.00283000      -0.01093000       0.00012000       0.04378000      -0.02269000      -0.00771000
C        7.58892500       9.20105000       9.92092500      -0.06911000       0.16101000       0.01525000      -0.06278000       0.00433000       0.00019000
C        7.53332500      10.61320000      10.04345000      -0.04809000      -0.14617000      -0.01098000      -0.05513000      -0.01110000       0.00377000
C        8.69295000      11.35480000      10.07205000      -0.00009000      -0.05518000      -0.00510000       0.02108000       0.05165000       0.00122000
C        9.95990000      10.72332500       9.97992500       0.00357000       0.00991000       0.00081000      -0.04271000       0.04900000       0.00833000
C       11.17302500      11.45815000      10.00632500       0.00831000      -0.05368000      -0.00489000       0.06275000      -0.00749000      -0.00232000
C       12.38717500      10.81547500       9.91482500       0.05877000      -0.14312000      -0.01433000       0.05011000       0.00980000       0.00005000
C       12.44277500       9.40335000       9.79230000       0.04679000       0.15000000       0.01132000      -0.02695000      -0.04935000      -0.00049000
C       11.28315000       8.66175000       9.76367500       0.00142000       0.05483000       0.00485000      -0.00283000      -0.01093000       0.00012000
C       10.01620000       9.29320000       9.85582500       0.01110000       0.00918000      -0.00010000      -0.06911000       0.16101000       0.01525000
H        8.84260000       7.47275000       9.73530000       0.04378000      -0.02269000      -0.00771000      -0.04809000      -0.14617000      -0.01098000
H        6.66717500       8.62027500       9.89892500      -0.06278000       0.00433000       0.00019000      -0.00009000      -0.05518000      -0.00510000
H        6.56892500      11.11537500      10.11545000      -0.05513000      -0.01110000       0.00377000       0.00357000       0.00991000       0.00081000
H        8.64702500      12.44017500      10.16632500       0.02108000       0.05165000       0.00122000       0.00831000      -0.05368000      -0.00489000
H       11.13350000      12.54380000      10.10045000      -0.04271000       0.04900000       0.00833000       0.05877000      -0.14312000      -0.01433000
H       13.30892500      11.39627500       9.93682500       0.06275000      -0.00749000      -0.00232000       0.04679000       0.15000000       0.01132000
H       13.40717500       8.90115000       9.72030000       0.05011000       0.00980000       0.00005000       0.00142000       0.05483000       0.00485000
H       11.32910000       7.57637500       9.66942500      -0.02695000      -0.04935000      -0.00049000       0.01110000       0.00918000      -0.00010000
18
Lattice="25.0 0.0 0.0 0.0 25.0 0.0 0.0 0.0 25.0" Properties=species:S:1:pos:R:3:castep_forces:R:3:forces:R:3 energy=-1704.76329221 free_energy=-1704.76329221 pbc="T T T"
C        8.80307500       8.55737500       9.82942500      -0.01127000       0.12333000       0.00978000       0.04537000      -0.08457000      -0.01251000
C        7.58892500       9.20105000       9.92092500      -0.04386000       0.12797000       0.01262000      -0.06595000       0.00635000       0.00039000
C        7.53332500      10.61320000      10.04345000      -0.04234000      -0.15151000      -0.01174000      -0.05513000      -0.01216000       0.00359000
C        8.69295000      11.35480000      10.07205000       0.00018000      -0.05522000      -0.00506000       0.02107000       0.05177000       0.00125000
C        9.95990000      10.72332500       9.97992500      -0.00157000       0.00530000       0.00048000      -0.04296000       0.04885000       0.00833000
C       11.17302500      11.45815000      10.00632500       0.00853000      -0.05478000      -0.00507000       0.06269000      -0.00751000      -0.00230000
C       12.38717500      10.81547500       9.91482500       0.05895000      -0.14364000      -0.01436000       0.05028000       0.00996000       0.00005000
C       12.44277500       9.40335000       9.79230000       0.04795000       0.15027000       0.01121000      -0.02663000      -0.04918000      -0.00044000
C       11.28315000       8.66175000       9.76367500       0.00259000       0.05770000       0.00500000      -0.01127000       0.12333000       0.00978000
C       10.01620000       9.29320000       9.85582500      -0.00790000      -0.02294000      -0.00123000      -0.04386000       0.12797000       0.01262000
H        8.84260000       7.47275000       9.73530000       0.04537000      -0.08457000      -0.01251000      -0.04234000      -0.15151000      -0.01174000
H        6.66717500       8.62027500       9.89892500      -0.06595000       0.00635000       0.00039000       0.00018000      -0.05522000      -0.00506000
H        6.56892500      11.11537500      10.11545000      -0.05513000      -0.01216000       0.00359000      -0.00157000       0.00530000       0.00048000
H        8.64702500      12.44017500      10.16632500       0.02107000       0.05177000       0.00125000       0.00853000      -0.05478000      -0.00507000
H       11.13350000      12.54380000      10.10045000      -0.04296000       0.04885000       0.00833000       0.05895000      -0.14364000      -0.01436000
H       13.30892500      11.39627500       9.93682500       0.06269000      -0.00751000      -0.00230000       0.04795000       0.15027000       0.01121000
H       13.40717500       8.90115000       9.72030000       0.05028000       0.00996000       0.00005000       0.00259000       0.05770000       0.00500000
H       11.32910000       7.57637500       9.66942500      -0.02663000      -0.04918000      -0.00044000      -0.00790000      -0.02294000      -0.00123000
18
Lattice="25.0 0.0 0.0 0.0 25.0 0.0 0.0 0.0 25.0" Properties=species:S:1:pos:R:3:castep_forces:R:3:forces:R:3 energy=-1704.763377631 free_energy=-1704.763377631 pbc="T T T"
C        8.80307500       8.55837500       9.83042500      -0.00510000       0.05141000      -0.00766000       0.04446000      -0.05117000      -0.00669000
C        7.58892500       9.20105000       9.92092500      -0.05824000       0.14579000       0.01966000      -0.06435000       0.00530000      -0.00006000
C        7.53332500      10.61320000      10.04345000      -0.04537000      -0.14845000      -0.01205000      -0.05518000      -0.01152000       0.00318000
C        8.69295000      11.35480000      10.07205000      -0.00006000      -0.05538000      -0.00476000       0.02108000       0.05175000       0.00134000
C        9.95990000      10.72332500       9.97992500       0.00123000       0.00763000       0.00011000      -0.04283000       0.04903000       0.00833000
C       11.17302500      11.45815000      10.00632500       0.00836000      -0.05431000      -0.00547000       0.06274000      -0.00750000      -0.00223000
C       12.38717500      10.81547500       9.91482500       0.05890000      -0.14350000      -0.01427000       0.05024000       0.00985000       0.00002000
C       12.44277500       9.40335000       9.79230000       0.04723000       0.15035000       0.01071000      -0.02680000      -0.04932000      -0.00018000
C       11.28315000       8.66175000       9.76367500       0.00171000       0.05624000       0.00456000      -0.00510000       0.05141000      -0.00766000
C       10.01620000       9.29320000       9.85582500       0.00198000      -0.00617000       0.00544000      -0.05824000       0.14579000       0.01966000
H        8.84260000       7.47275000       9.73530000       0.04446000      -0.05117000      -0.00669000      -0.04537000      -0.14845000      -0.01205000
H        6.66717500       8.62027500       9.89892500      -0.06435000       0.00530000      -0.00006000      -0.00006000      -0.05538000      -0.00476000
H        6.56892500      11.11537500      10.11545000      -0.05518000      -0.01152000       0.00318000       0.00123000       0.00763000       0.00011000
H        8.64702500      12.44017500      10.16632500       0.02108000       0.05175000       0.00134000       0.00836000      -0.05431000      -0.00547000
H       11.13350000      12.54380000      10.10045000      -0.04283000       0.04903000       0.00833000       0.05890000      -0.14350000      -0.01427000
H       13.30892500      11.39627500       9.93682500       0.06274000      -0.00750000      -0.00223000       0.04723000       0.15035000       0.01071000
H       13.40717500       8.90115000       9.72030000       0.05024000       0.00985000       0.00002000       0.00171000       0.05624000       0.00456000
H       11.32910000       7.57637500       9.66942500      -0.02680000      -0.04932000      -0.00018000       0.00198000      -0.00617000       0.00544000
18
Lattice="25.0 0.0 0.0 0.0 25.0 0.0 0.0 0.0 25.0" Properties=species:S:1:pos:R:3:castep_forces:R:3:forces:R:3 energy=-1704.763376399 free_energy=-1704.763376399 pbc="T T T"
C        8.80307500       8.55837500       9.82842500      -0.00899000       0.06096000       0.01755000       0.04468000      -0.05586000      -0.01350000
C        7.58892500       9.20105000       9.92092500      -0.05448000       0.14331000       0.00821000      -0.06443000       0.00536000       0.00064000
C        7.53332500      10.61320000      10.04345000      -0.04489000      -0.14929000      -0.01068000      -0.05510000      -0.01171000       0.00419000
C        8.69295000      11.35480000      10.07205000       0.00015000      -0.05518000      -0.00541000       0.02107000       0.05167000       0.00113000
C        9.95990000      10.72332500       9.97992500       0.00070000       0.00748000       0.00118000      -0.04284000       0.04887000       0.00834000
C       11.17302500      11.45815000      10.00632500       0.00850000      -0.05436000      -0.00451000       0.06270000      -0.00749000      -0.00240000
C       12.38717500      10.81547500       9.91482500       0.05874000      -0.14332000      -0.01442000       0.05020000       0.00988000       0.00007000
C       12.44277500       9.40335000       9.79230000       0.04727000       0.15000000       0.01184000      -0.02678000      -0.04916000      -0.00074000
C       11.28315000       8.66175000       9.76367500       0.00228000       0.05640000       0.00529000      -0.00899000       0.06096000       0.01755000
C       10.01620000       9.29320000       9.85582500       0.00122000      -0.00756000      -0.00677000      -0.05448000       0.14331000       0.00821000
H        8.84260000       7.47275000       9.73530000       0.04468000      -0.05586000      -0.01350000      -0.04489000      -0.14929000      -0.01068000
H        6.66717500       8.62027500       9.89892500      -0.06443000       0.00536000       0.00064000       0.00015000      -0.05518000      -0.00541000
H        6.56892500      11.11537500      10.11545000      -0.05510000      -0.01171000       0.00419000       0.00070000       0.00748000       0.00118000
H        8.64702500      12.44017500      10.16632500       0.02107000       0.05167000       0.00113000       0.00850000      -0.05436000      -0.00451000
H       11.13350000      12.54380000      10.10045000      -0.04284000       0.04887000       0.00834000       0.05874000      -0.14332000      -0.01442000
H       13.30892500      11.39627500       9.93682500       0.06270000      -0.00749000      -0.00240000       0.04727000       0.15000000       0.01184000
H       13.40717500       8.90115000       9.72030000       0.05020000       0.00988000       0.00007000       0.00228000       0.05640000       0.00529000
H       11.32910000       7.57637500       9.66942500      -0.02678000      -0.04916000      -0.00074000       0.00122000      -0.00756000      -0.00677000
18
Lattice="25.0 0.0 0.0 0.0 25.0 0.0 0.0 0.0 25.0" Properties=species:S:1:pos:R:3:castep_forces:R:3:forces:R:3 energy=-1704.763289387 free_energy=-1704.763289387 pbc="T T T"
C        8.80307500       8.55837500       9.82942500       0.02380000       0.04356000       0.00312000       0.04435000      -0.05336000      -0.01009000
C        7.58992500       9.20105000       9.92092500      -0.12595000       0.14329000       0.01554000      -0.04055000       0.01715000       0.00068000
C        7.53332500      10.61320000      10.04345000      -0.03402000      -0.14693000      -0.01137000      -0.05540000      -0.01425000       0.00346000
C        8.69295000      11.35480000      10.07205000      -0.00255000      -0.05291000      -0.00482000       0.02147000       0.05213000       0.00124000
C        9.95990000      10.72332500       9.97992500       0.00242000       0.00614000       0.00050000      -0.04287000       0.04902000       0.00834000
C       11.17302500      11.45815000      10.00632500       0.00775000      -0.05452000      -0.00499000       0.06277000      -0.00748000      -0.00231000
C       12.38717500      10.81547500       9.91482500       0.05927000      -0.14417000      -0.01443000       0.05035000       0.00985000       0.00005000
C       12.44277500       9.40335000       9.79230000       0.04778000       0.15113000       0.01134000      -0.02681000      -0.04933000      -0.00047000
C       11.28315000       8.66175000       9.76367500       0.00076000       0.05686000       0.00499000       0.02380000       0.04356000       0.00312000
C       10.01620000       9.29320000       9.85582500       0.00739000      -0.00620000      -0.00080000      -0.12595000       0.14329000       0.01554000
H        8.84260000       7.47275000       9.73530000       0.04435000      -0.05336000      -0.01009000      -0.03402000      -0.14693000      -0.01137000
H        6.66717500       8.62027500       9.89892500      -0.04055000       0.01715000       0.00068000      -0.00255000      -0.05291000      -0.00482000
H        6.56892500      11.11537500      10.11545000      -0.05540000      -0.01425000       0.00346000       0.00242000       0.00614000       0.00050000
H        8.64702500      12.44017500      10.16632500       0.02147000       0.05213000       0.00124000       0.00775000      -0.05452000      -0.00499000
H       11.13350000      12.54380000      10.10045000      -0.04287000       0.04902000       0.00834000       0.05927000      -0.14417000      -0.01443000
H       13.30892500      11.39627500       9.93682500       0.06277000      -0.00748000      -0.00231000       0.04778000       0.15113000       0.01134000
H       13.40717500       8.90115000       9.72030000       0.05035000       0.00985000       0.00005000       0.00076000       0.05686000       0.00499000
H       11.32910000       7.57637500       9.66942500      -0.02681000      -0.04933000      -0.00047000       0.00739000      -0.00620000      -0.00080000
18
Lattice="25.0 0.0 0.0 0.0 25.0 0.0 0.0 0.0 25.0" Properties=species:S:1:pos:R:3:castep_forces:R:3:forces:R:3 energy=-1704.763405639 free_energy=-1704.763405639 pbc="T T T"
C        8.80307500       8.55837500       9.82942500      -0.03768000       0.06867000       0.00678000       0.04480000      -0.05373000      -0.01011000
C        7.58792500       9.20105000       9.92092500       0.01310000       0.14602000       0.01234000      -0.08836000      -0.00659000      -0.00011000
C        7.53332500      10.61320000      10.04345000      -0.05638000      -0.15082000      -0.01137000      -0.05490000      -0.00899000       0.00391000
C        8.69295000      11.35480000      10.07205000       0.00271000      -0.05766000      -0.00535000       0.02068000       0.05137000       0.00124000
C        9.95990000      10.72332500       9.97992500      -0.00043000       0.00902000       0.00079000      -0.04281000       0.04890000       0.00833000
C       11.17302500      11.45815000      10.00632500       0.00906000      -0.05415000      -0.00500000       0.06267000      -0.00751000      -0.00231000
C       12.38717500      10.81547500       9.91482500       0.05841000      -0.14264000      -0.01426000       0.05014000       0.00986000       0.00005000
C       12.44277500       9.40335000       9.79230000       0.04683000       0.14928000       0.01121000      -0.02677000      -0.04923000      -0.00046000
C       11.28315000       8.66175000       9.76367500       0.00314000       0.05576000       0.00486000      -0.03768000       0.06867000       0.00678000
C       10.01620000       9.29320000       9.85582500      -0.00422000      -0.00754000      -0.00053000       0.01310000       0.14602000       0.01234000
H        8.84260000       7.47275000       9.73530000       0.04480000      -0.05373000      -0.01011000      -0.05638000      -0.15082000      -0.01137000
H        6.66717500       8.62027500       9.89892500      -0.08836000      -0.00659000      -0.00011000       0.00271000      -0.05766000      -0.00535000
H        6.56892500      11.11537500      10.11545000      -0.05490000      -0.00899000       0.00391000      -0.00043000       0.00902000       0.00079000
H        8.64702500      12.44017500      10.16632500       0.02068000       0.05137000       0.00124000       0.00906000      -0.05415000      -0.00500000
H       11.13350000      12.54380000      10.10045000      -0.04281000       0.04890000       0.00833000       0.05841000      -0.14264000      -0.01426000
H       13.30892500      11.39627500       9.93682500       0.06267000      -0.00751000      -0.00231000       0.04683000       0.14928000       0.01121000
H       13.40717500       8.90115000       9.72030000       0.05014000       0.00986000       0.00005000       0.00314000       0.05576000       0.00486000
H       11.32910000       7.57637500       9.66942500      -0.02677000      -0.04923000      -0.00046000      -0.00422000      -0.00754000      -0.00053000
18
Lattice="25.0 0.0 0.0 0.0 25.0 0.0 0.0 0.0 25.0" Properties=species:S:1:pos:R:3:castep_forces:R:3:forces:R:3 energy=-1704.76350008 free_energy=-1704.76350008 pbc="T T T"
C        8.80307500       8.55837500       9.82942500      -0.01478000       0.07273000       0.00612000       0.04186000      -0.05243000      -0.00989000
C        7.58892500       9.20205000       9.92092500      -0.05773000       0.08436000       0.00986000      -0.05257000       0.01801000       0.00074000
C        7.53332500      10.61320000      10.04345000      -0.04833000      -0.12173000      -0.00944000      -0.05491000      -0.01076000       0.00377000
C        8.69295000      11.35480000      10.07205000       0.00573000      -0.05194000      -0.00491000       0.02129000       0.05161000       0.00129000
C        9.95990000      10.72332500       9.97992500      -0.00190000       0.00957000       0.00085000      -0.04281000       0.04886000       0.00832000
C       11.17302500      11.45815000      10.00632500       0.00981000      -0.05412000      -0.00502000       0.06267000      -0.00749000      -0.00231000
C       12.38717500      10.81547500       9.91482500       0.05804000      -0.14222000      -0.01422000       0.05021000       0.00988000       0.00004000
C       12.44277500       9.40335000       9.79230000       0.04650000       0.14883000       0.01118000      -0.02673000      -0.04923000      -0.00046000
C       11.28315000       8.66175000       9.76367500       0.00405000       0.05646000       0.00493000      -0.01478000       0.07273000       0.00612000
C       10.01620000       9.29320000       9.85582500      -0.00039000      -0.01040000      -0.00085000      -0.05773000       0.08436000       0.00986000
H        8.84260000       7.47275000       9.73530000       0.04186000      -0.05243000      -0.00989000      -0.04833000      -0.12173000      -0.00944000
H        6.66717500       8.62027500       9.89892500      -0.05257000       0.01801000       0.00074000       0.00573000      -0.05194000      -0.00491000
H        6.56892500      11.11537500      10.11545000      -0.05491000      -0.01076000       0.00377000      -0.00190000       0.00957000       0.00085000
H        8.64702500      12.44017500      10.16632500       0.02129000       0.05161000       0.00129000       0.00981000      -0.05412000      -0.00502000
H       11.13350000      12.54380000      10.10045000      -0.04281000       0.04886000       0.00832000       0.05804000      -0.14222000      -0.01422000
H       13.30892500      11.39627500       9.93682500       0.06267000      -0.00749000      -0.00231000       0.04650000       0.14883000       0.01118000
H       13.40717500       8.90115000       9.72030000       0.05021000       0.00988000       0.00004000       0.00405000       0.05646000       0.00493000
H       11.32910000       7.57637500       9.66942500      -0.02673000      -0.04923000      -0.00046000      -0.00039000      -0.01040000      -0.00085000
18
Lattice="25.0 0.0 0.0 0.0 25.0 0.0 0.0 0.0 25.0" Properties=species:S:1:pos:R:3:castep_forces:R:3:forces:R:3 energy=-1704.763207475 free_energy=-1704.763207475 pbc="T T T"
C        8.80307500       8.55837500       9.82942500       0.00078000       0.03962000       0.00377000       0.04729000      -0.05460000      -0.01031000
C        7.58892500       9.20005000       9.92092500      -0.05506000       0.20457000       0.01800000      -0.07621000      -0.00733000      -0.00016000
C        7.53332500      10.61320000      10.04345000      -0.04205000      -0.17586000      -0.01327000      -0.05534000      -0.01250000       0.00360000
C        8.69295000      11.35480000      10.07205000      -0.00561000      -0.05861000      -0.00526000       0.02086000       0.05183000       0.00119000
C        9.95990000      10.72332500       9.97992500       0.00388000       0.00557000       0.00044000      -0.04286000       0.04900000       0.00834000
C       11.17302500      11.45815000      10.00632500       0.00703000      -0.05454000      -0.00496000       0.06275000      -0.00752000      -0.00232000
C       12.38717500      10.81547500       9.91482500       0.05963000      -0.14460000      -0.01448000       0.05020000       0.00987000       0.00005000
C       12.44277500       9.40335000       9.79230000       0.04811000       0.15154000       0.01137000      -0.02684000      -0.04929000      -0.00046000
C       11.28315000       8.66175000       9.76367500      -0.00011000       0.05616000       0.00494000       0.00078000       0.03962000       0.00377000
C       10.01620000       9.29320000       9.85582500       0.00355000      -0.00331000      -0.00047000      -0.05506000       0.20457000       0.01800000
H        8.84260000       7.47275000       9.73530000       0.04729000      -0.05460000      -0.01031000      -0.04205000      -0.17586000      -0.01327000
H        6.66717500       8.62027500       9.89892500      -0.07621000      -0.00733000      -0.00016000      -0.00561000      -0.05861000      -0.00526000
H        6.56892500      11.11537500      10.11545000      -0.05534000      -0.01250000       0.00360000       0.00388000       0.00557000       0.00044000
H        8.64702500      12.44017500      10.16632500       0.02086000       0.05183000       0.00119000       0.00703000      -0.05454000      -0.00496000
H       11.13350000      12.54380000      10.10045000      -0.04286000       0.04900000       0.00834000       0.05963000      -0.14460000      -0.01448000
H       13.30892500      11.39627500       9.93682500       0.06275000      -0.00752000      -0.00232000       0.04811000       0.15154000       0.01137000
H       13.40717500       8.90115000       9.72030000       0.05020000       0.00987000       0.00005000      -0.00011000       0.05616000       0.00494000
H       11.32910000       7.57637500       9.66942500      -0.02684000      -0.04929000      -0.00046000       0.00355000      -0.00331000      -0.00047000
18