20
Properties=species:S:1:pos:R:3 Geometry=T Step:=T 0=T Formation_E=-55.9116 Library_id=0 Point_group=Ih spice_energy=-20732.21330940016 maceoff23_energy=-20687.998046875 maceoff24_energy=-20711.826171875 castep_energy=-3129.489483401 gomace_energy=-3119.375732421875 pbc="F F F"
C        1.56910000      -0.65660000      -0.93640000
C        1.76690000       0.64310000      -0.47200000
C        0.47050000      -0.66520000      -1.79270000
C        0.01160000       0.64780000      -1.82550000
C        0.79300000       1.46730000      -1.02840000
C       -0.48740000      -1.48180000      -1.21570000
C       -1.56350000      -0.65720000      -0.89520000
C       -1.26940000       0.64900000      -1.27670000
C       -0.00230000      -1.96180000      -0.00720000
C       -0.76980000      -1.45320000       1.03590000
C       -1.75760000      -0.63800000       0.47420000
C        1.28780000      -1.45030000       0.16290000
C        1.28960000      -0.65950000       1.30470000
C        0.01150000      -0.64600000       1.85330000
C        1.58300000       0.64540000       0.89840000
C        0.48480000       1.43830000       1.19370000
C       -0.50320000       0.64690000       1.77530000
C       -1.60620000       0.67150000       0.92310000
C       -1.29590000       1.48910000      -0.16550000
C       -0.01020000       1.97270000      -0.00630000
24
Properties=species:S:1:pos:R:3 Geometry=T Step:=T 0=T Formation_E=-69.182 Library_id=0 Point_group=D6d spice_energy=-24880.416570081627 maceoff23_energy=-24869.11328125 maceoff24_energy=-24861.69140625 castep_energy=-3757.454830081 gomace_energy=-3750.05126953125 pbc="F F F"
C        1.14300000      -2.00480000       0.34000000
C       -0.01940000      -2.33110000      -0.32930000
C        1.99990000      -1.14140000      -0.32750000
C        0.00350000      -1.38660000      -1.36270000
C        1.20520000      -0.68140000      -1.37640000
C        2.31790000       0.01540000       0.34490000
C        2.00400000       1.17560000      -0.33580000
C        1.20540000       0.71470000      -1.39810000
C        1.39740000      -0.01100000       1.39600000
C        0.69180000      -1.21380000       1.39820000
C       -0.70150000      -1.23720000       1.38370000
C        0.71290000       1.20850000       1.37870000
C       -0.68160000       1.18370000       1.38350000
C       -1.38590000      -0.01880000       1.37160000
C        1.15770000       2.02920000       0.34180000
C       -2.01520000      -1.18420000      -0.33210000
C       -1.18900000      -2.04460000       0.35090000
C       -2.31220000      -0.00100000       0.33440000
C       -1.99290000       1.16280000      -0.33550000
C       -1.12980000       2.00480000       0.34150000
C        0.01080000       2.32710000      -0.37200000
C       -1.21030000      -0.68840000      -1.36860000
C       -1.20630000       0.70850000      -1.40110000
C       -0.00430000       1.41660000      -1.42690000
26
Properties=species:S:1:pos:R:3 Geometry=T Step:=T 0=T Formation_E=-78.2335 Library_id=0 Point_group=D3h spice_energy=-26956.65912691544 maceoff23_energy=-26942.05859375 maceoff24_energy=-26939.06640625 castep_energy=-4073.055624131 gomace_energy=-4068.21728515625 pbc="F F F"
C       -2.03950000       0.64990000      -1.09300000
C       -1.23240000      -0.22710000      -1.81620000
C       -2.55820000      -0.00860000      -0.00810000
C       -2.03060000      -1.26790000       0.00690000
C       -0.00740000      -1.91920000      -0.67980000
C       -1.22740000      -1.43790000      -1.11630000
C        1.21960000      -1.41110000      -1.08880000
C       -2.01390000       0.61520000       1.09120000
C       -1.23290000      -1.45340000       1.13090000
C       -1.22620000      -0.24310000       1.84700000
C       -1.22670000       1.67840000       0.67050000
C       -1.22850000       1.72100000      -0.72550000
C       -0.00560000       1.59770000      -1.37290000
C       -0.01020000       1.53820000       1.32790000
C        1.19920000       1.66490000       0.65960000
C        1.23700000       1.70290000      -0.73640000
C        0.00780000       0.35650000       2.08530000
C        1.23320000      -0.20500000      -1.81640000
C       -0.00290000       0.38410000      -2.06110000
C        2.06630000       0.65600000      -1.11620000
C        2.56080000      -0.00990000      -0.01670000
C        1.99130000       0.60650000       1.07890000
C        0.00810000      -1.96400000       0.72010000
C        1.24890000      -1.48020000       1.15490000
C        1.23580000      -0.26660000       1.85210000
C        2.03480000      -1.27470000       0.02110000
28
Properties=species:S:1:pos:R:3 Geometry=T Step:=T 0=T Formation_E=-89.0451 Library_id=0 Point_group=Td spice_energy=-29032.33845655907 maceoff23_energy=-29016.125 maceoff24_energy=-29028.7265625 castep_energy=-4389.413307851 gomace_energy=-4388.0390625 pbc="F F F"
C       -2.02221000      -0.57301000      -1.06177000
C       -0.87291000      -1.74728000       1.25966000
C       -1.75620000      -0.64754000       1.42413000
C       -2.30711000      -0.08656000       0.24165000
C       -1.66894000       0.47098000      -1.95718000
C       -1.92450000       1.28095000       0.24239000
C       -1.42376000       1.54417000      -1.06012000
C       -1.21759000       0.34409000       2.28611000
C       -0.34814000       0.09870000      -2.32249000
C       -0.05034000      -1.24222000      -1.96207000
C        1.13472000      -1.61900000      -1.27634000
C        0.60687000       1.08569000      -1.96149000
C        1.81368000       0.78759000      -1.27499000
C        2.04002000      -0.57550000      -0.94756000
C       -0.08802000       2.01828000      -1.14674000
C        1.36871000      -1.68426000       0.90890000
C        0.86174000      -2.46127000      -0.16616000
C        0.35798000      -1.35904000       1.85187000
C        2.19179000      -0.61617000       0.46374000
C       -0.53901000      -2.28794000      -0.01026000
C       -1.12953000      -1.67416000      -1.14646000
C        2.04507000       0.72297000       0.91279000
C        2.02367000       1.64760000      -0.16471000
C       -1.15934000       1.47057000       1.42351000
C        0.16837000       1.94571000       1.25653000
C        0.73856000       2.23208000      -0.01205000
C        1.00959000       0.96935000       1.85276000
C        0.14684000      -0.04476000       2.34635000
30
Properties=species:S:1:pos:R:3 Geometry=T Step:=T 0=T Formation_E=-95.424 Library_id=3 Point_group=C2v spice_energy=-31109.354764007297 maceoff23_energy=-31094.990234375 maceoff24_energy=-31096.9921875 castep_energy=-4704.597112806 gomace_energy=-4699.89306640625 pbc="F F F"
C       -1.42780000       2.12820000       0.01080000
C       -2.35000000       1.10180000       0.01020000
C       -0.69920000       1.95890000      -1.16760000
C        0.67710000       1.96670000      -1.13640000
C        1.44000000       2.12140000       0.01710000
C       -2.19210000       0.31610000      -1.11420000
C       -2.13170000      -0.98560000      -0.67290000
C       -1.11610000      -1.82750000      -1.09090000
C       -1.11980000       0.81250000      -1.82220000
C        0.00150000       0.02740000      -2.13910000
C        0.01920000      -1.35030000      -1.79520000
C       -0.66170000      -2.51190000       0.00660000
C        0.67040000      -2.52220000      -0.02350000
C        1.16530000      -1.87460000      -1.13360000
C       -1.14920000      -1.84540000       1.11160000
C       -2.18010000      -0.99710000       0.72830000
C       -2.23390000       0.31800000       1.13320000
C       -0.01060000      -1.32880000       1.77330000
C       -0.02560000       0.05440000       2.11580000
C       -1.14100000       0.85140000       1.79790000
C        1.11880000      -1.83180000       1.08060000
C        0.68400000       1.99510000       1.18980000
C       -0.69470000       2.02670000       1.18730000
C        2.19070000       0.32140000       1.10510000
C        1.11250000       0.82470000       1.80040000
C        2.12330000      -0.98460000       0.66470000
C        1.12220000       0.80390000      -1.77510000
C        2.24540000       0.31890000      -1.11230000
C        2.17720000      -1.00670000      -0.74060000
C        2.38330000       1.12100000      -0.00950000
32
Properties=species:S:1:pos:R:3 Geometry=T Step:=T 0=T Formation_E=-104.756 Library_id=6 Point_group=D3 spice_energy=-33186.50238223904 maceoff23_energy=-33171.40234375 maceoff24_energy=-33175.76171875 castep_energy=-5021.166395505 gomace_energy=-5015.947265625 pbc="F F F"
C       -2.80970000       0.00660000       0.00420000
C       -2.36070000      -1.23590000      -0.40000000
C       -1.65970000       0.29290000      -1.85150000
C       -2.34300000       0.96830000      -0.86850000
C        0.30950000      -2.19190000      -0.67180000
C       -0.31290000      -1.51150000      -1.75980000
C       -1.63140000      -1.06190000      -1.57240000
C       -1.62750000       1.87720000      -0.11290000
C       -0.39170000       0.67230000      -2.20510000
C        0.31340000       1.68720000      -1.55120000
C       -0.31350000       2.27610000      -0.42060000
C        0.42330000      -0.44450000      -2.30340000
C       -1.69440000       1.45930000       1.21160000
C       -2.38510000       0.26960000       1.28610000
C       -1.64990000      -0.82840000       1.70750000
C       -0.41540000       1.58120000       1.69840000
C        0.30760000       0.51020000       2.24510000
C       -0.32880000      -0.76380000       2.19740000
C        0.40800000       2.21740000       0.77790000
C       -0.40410000      -2.24810000       0.53710000
C       -1.67510000      -1.76560000       0.66290000
C        1.65190000      -1.56860000       1.02280000
C        0.40130000      -1.76050000       1.53680000
C        2.34010000      -0.39360000       1.20290000
C        1.61210000       0.65820000       1.74960000
C        2.82430000      -0.01110000      -0.02340000
C        2.35910000       1.27400000      -0.25100000
C        1.68330000       1.72110000       0.85520000
C        1.62230000       1.17570000      -1.43090000
C        1.64070000      -1.84510000      -0.34250000
C        2.39850000      -0.87970000      -1.00880000
C        1.70240000      -0.13100000      -1.91930000
34
Properties=species:S:1:pos:R:3 Geometry=T Step:=T 0=T Formation_E=-111.9662 Library_id=5 Point_group=C2 spice_energy=-35261.263551924494 maceoff23_energy=-35248.5234375 maceoff24_energy=-35254.43359375 castep_energy=-5335.54088248 gomace_energy=-5331.1728515625 pbc="F F F"
C       -0.56590000       1.22930000       1.95580000
C       -1.43910000       0.13480000       1.97440000
C       -0.85070000      -1.13830000       1.95380000
C        0.83310000       1.14940000       1.94560000
C        1.41340000      -0.12680000       1.96310000
C        0.54390000      -1.21930000       1.95700000
C        2.43320000      -0.43560000       1.04840000
C        2.84100000       0.45700000       0.06800000
C       -2.82170000      -0.44100000       0.07960000
C       -2.13930000      -1.64040000       0.01830000
C       -2.45080000       0.46860000       1.06150000
C       -1.23670000      -2.04630000       0.96380000
C        0.99990000      -2.14910000       1.04590000
C       -0.10840000      -2.53970000       0.34540000
C       -2.13380000       1.43310000      -0.88820000
C       -2.14100000       1.69580000       0.47690000
C       -1.47470000      -1.71260000      -1.20160000
C       -1.75430000      -0.53520000      -1.86490000
C       -2.62390000       0.18150000      -1.12100000
C       -1.01180000       2.18360000       1.06060000
C       -0.90090000       1.51710000      -1.57880000
C        0.19020000       2.18670000      -0.97850000
C        0.11570000       2.54550000       0.37990000
C       -0.65420000       0.24760000      -2.20730000
C        2.16170000       1.66240000       0.01950000
C        1.26740000       2.07020000       0.97840000
C        1.74570000       0.51500000      -1.84020000
C        1.46880000       1.68910000      -1.18050000
C       -0.19240000      -2.22940000      -1.02310000
C        0.90930000      -1.56120000      -1.60830000
C        0.65640000      -0.27870000      -2.19640000
C        2.11570000      -1.66140000       0.44480000
C        2.15120000      -1.44490000      -0.92780000
C        2.65130000      -0.20470000      -1.12300000
36
Properties=species:S:1:pos:R:3 Geometry=T Step:=T 0=T Formation_E=-120.6212 Library_id=15 Point_group=D6h spice_energy=-37336.918520796055 maceoff23_energy=-37325.12890625 maceoff24_energy=-37332.19140625 castep_energy=-5651.069133366 gomace_energy=-5648.1650390625 pbc="F F F"
C        1.38000000      -1.08960000      -1.90050000
C       -1.38280000      -1.09260000      -1.90290000
C       -0.68460000      -2.09080000      -1.21930000
C        0.70250000      -2.10280000      -1.20900000
C        2.49770000      -0.68080000      -1.18920000
C        2.50530000       0.69670000      -1.19290000
C        2.48600000       1.38910000      -0.00630000
C        2.48430000      -1.38270000      -0.00980000
C        2.47240000      -0.68540000       1.18070000
C        2.47510000       0.69280000       1.18450000
C       -0.68990000      -2.06790000       1.20370000
C        0.70280000      -2.08960000       1.21460000
C        1.38890000      -2.21450000       0.00150000
C       -1.38940000      -2.16680000      -0.01110000
C        0.70940000       2.09690000       1.21910000
C        1.38520000       2.21100000      -0.00690000
C       -0.68010000       2.08320000       1.22070000
C        1.38940000       1.09930000       1.92690000
C        0.70560000       2.09350000      -1.22100000
C        1.39350000       1.09480000      -1.91930000
C       -0.68340000       2.07520000      -1.21360000
C       -1.36740000       2.16290000       0.00260000
C       -1.39730000       1.09110000      -1.90520000
C       -0.69260000       0.00560000      -2.44080000
C        0.69530000       0.00550000      -2.44600000
C       -2.48590000       1.35940000      -0.01130000
C       -2.51540000       0.67740000      -1.20860000
C       -2.51620000      -0.69790000      -1.20030000
C       -2.46990000       0.68880000       1.19780000
C        0.69880000       0.00210000       2.46780000
C       -0.69470000      -0.00720000       2.45580000
C       -1.37180000       1.09580000       1.92640000
C        1.38460000      -1.09180000       1.92070000
C       -1.39770000      -1.08670000       1.90450000
C       -2.51470000      -0.69370000       1.18910000
C       -2.52570000      -1.37800000      -0.00150000
38
Properties=species:S:1:pos:R:3 Geometry=T Step:=T 0=T Formation_E=-128.6573 Library_id=17 Point_group=C2 spice_energy=-39413.06370285506 maceoff23_energy=-39403.51171875 maceoff24_energy=-39410.44921875 castep_energy=-5966.027305437 gomace_energy=-5963.21630859375 pbc="F F F"
C       -2.85570000       0.44340000      -0.17410000
C       -2.77990000      -0.92430000      -0.10380000
C       -2.24830000      -1.52530000       0.98390000
C       -2.35250000       1.28360000       0.83600000
C       -1.67150000       0.63330000       1.89960000
C       -1.68490000      -0.75490000       1.96120000
C        0.26580000       2.13750000       1.62120000
C       -0.33840000       1.02860000       2.25520000
C       -0.13670000      -2.26460000       1.37630000
C       -1.26270000      -2.39200000       0.55210000
C        1.12840000      -2.31320000       0.80450000
C       -0.43510000      -1.20450000       2.23730000
C       -2.07280000      -1.36120000      -1.21370000
C       -1.74830000      -0.26110000      -2.01030000
C       -0.42380000      -0.16690000      -2.46650000
C       -1.14450000      -2.34210000      -0.84120000
C        0.12500000      -2.29000000      -1.39250000
C        0.44620000      -1.21620000      -2.22080000
C        1.26450000      -2.39580000      -0.58370000
C       -1.58330000       1.96390000      -1.16240000
C       -0.27550000       2.09330000      -1.62030000
C       -2.29880000       0.83540000      -1.37680000
C        0.35120000       1.01320000      -2.27500000
C        1.67740000       0.62240000      -1.92270000
C        0.38910000       2.65150000      -0.53890000
C        1.61530000       2.22000000      -0.15750000
C        2.33220000       1.23950000      -0.82690000
C        1.70870000      -0.77210000      -1.96570000
C       -0.43660000       2.71340000       0.56210000
C       -1.66490000       2.29890000       0.17860000
C        2.27530000      -1.54780000      -0.98540000
C        2.80460000      -0.92640000       0.10090000
C        2.86730000       0.43540000       0.19350000
C        0.43460000      -0.15690000       2.47670000
C        1.75390000      -0.26310000       2.01130000
C        2.07030000      -1.35310000       1.19870000
C        1.58350000       1.96980000       1.19580000
C        2.31920000       0.84950000       1.39570000
40
Properties=species:S:1:pos:R:3 Geometry=T Step:=T 0=T Formation_E=-136.5765 Library_id=38 Point_group=D2 spice_energy=-41488.67447804116 maceoff23_energy=-41480.24609375 maceoff24_energy=-41487.9453125 castep_energy=-6280.901642513 gomace_energy=-6278.59765625 pbc="F F F"
C       -0.84000000       2.29120000       1.11720000
C        0.53490000       2.36560000       1.23460000
C       -1.41270000       2.40360000      -0.15530000
C       -2.87310000       0.58360000       0.33140000
C       -2.43330000       1.54980000      -0.52130000
C        2.43660000       1.56050000       0.52700000
C        2.86910000       0.58870000      -0.32230000
C        1.42060000       2.42430000       0.14940000
C        2.31970000       0.40570000      -1.58760000
C        1.26810000       1.26110000      -1.97410000
C        0.84540000       2.31440000      -1.11490000
C       -0.52450000       2.37270000      -1.23950000
C        2.90020000      -0.61430000       0.34860000
C        2.45180000      -1.56550000      -0.51440000
C        2.13930000      -0.95760000      -1.70930000
C        0.95590000      -1.47050000      -2.11910000
C       -0.08920000      -0.69030000      -2.54260000
C        0.08040000       0.71460000      -2.55950000
C        1.28180000      -1.24020000       1.97380000
C        0.86480000      -2.30150000       1.10900000
C        2.35270000      -0.39310000       1.61040000
C        1.42280000      -2.42880000      -0.16380000
C        0.51230000      -2.39530000      -1.22550000
C        0.99230000       1.48600000       2.17410000
C       -0.07530000       0.72000000       2.58140000
C        2.16770000       0.97520000       1.74450000
C        0.09500000      -0.68130000       2.54460000
C       -0.94410000      -1.44860000       2.10290000
C       -1.26550000       1.26180000       2.00020000
C       -2.31060000       0.40960000       1.59290000
C       -2.13490000      -0.95460000       1.67970000
C       -0.86240000      -2.31760000      -1.10790000
C       -1.44430000      -2.43740000       0.16010000
C       -0.51610000      -2.37740000       1.21160000
C       -2.48250000      -1.58510000       0.50310000
C       -2.92100000      -0.61900000      -0.35130000
C       -1.28080000      -1.24990000      -1.97400000
C       -2.35410000      -0.40430000      -1.60420000
C       -0.98630000       1.48100000      -2.16790000
C       -2.16200000       0.96450000      -1.73800000
42
Properties=species:S:1:pos:R:3 Geometry=T Step:=T 0=T Formation_E=-145.2339 Library_id=45 Point_group=D3 spice_energy=-43564.94848779175 maceoff23_energy=-43556.96875 maceoff24_energy=-43564.9921875 castep_energy=-6596.719021486 gomace_energy=-6594.267578125 pbc="F F F"
C       -2.73560000      -0.50010000      -0.87710000
C       -2.37590000       0.73760000      -1.38150000
C       -2.30680000       1.80810000      -0.48960000
C       -2.84040000      -0.82840000       0.48080000
C       -2.46960000       0.20780000       1.34560000
C       -2.32340000       1.49430000       0.86530000
C       -0.73620000      -1.20540000       2.29000000
C       -1.38670000       0.04210000       2.26040000
C       -0.23900000       1.38570000      -2.30910000
C       -0.26210000       2.48830000      -1.49180000
C       -1.31590000       0.48770000      -2.29760000
C       -1.26220000       2.70470000      -0.59750000
C       -1.30300000       2.14260000       1.49820000
C       -0.64840000       2.94660000       0.60890000
C        0.21620000      -1.38860000      -2.27690000
C        1.30200000      -0.49020000      -2.30090000
C       -1.09660000      -0.89820000      -2.32170000
C        1.07890000       0.89350000      -2.27110000
C        1.82240000       1.70790000      -1.36550000
C        2.27050000      -1.01940000      -1.48980000
C        2.96090000      -0.25950000      -0.59730000
C        2.71410000       1.09450000      -0.48310000
C        0.94120000       2.64740000      -0.87190000
C       -1.73170000      -2.45750000      -0.60160000
C       -0.42610000      -2.90450000      -0.48410000
C       -2.02780000      -1.48770000      -1.50550000
C        0.55110000      -2.43810000      -1.36700000
C        1.80360000      -2.13750000      -0.87330000
C       -1.21350000      -2.22600000       1.49660000
C       -2.23180000      -2.06030000       0.61660000
C        2.13260000      -2.05060000       0.48660000
C        1.05720000      -2.25830000       1.36160000
C       -0.12550000      -2.78110000       0.87480000
C        2.87240000      -0.89080000       0.61760000
C        2.51590000       0.07310000       1.50880000
C        0.72830000       2.89310000       0.49460000
C        1.43510000       2.06350000       1.37390000
C        2.46860000       1.29230000       0.87850000
C       -0.65270000       1.24390000       2.31040000
C        0.74920000       1.20180000       2.28670000
C        0.67550000      -1.23310000       2.27890000
C        1.41340000      -0.03990000       2.32300000
44
Properties=species:S:1:pos:R:3 Geometry=T Step:=T 0=T Formation_E=-153.6883 Library_id=75 Point_group=D2 spice_energy=-45640.97895759858 maceoff23_energy=-45633.32421875 maceoff24_energy=-45641.66015625 castep_energy=-6912.355920037 gomace_energy=-6909.9150390625 pbc="F F F"
C       -2.34310000      -1.14320000       1.52710000
C       -1.14640000      -1.37810000       2.17470000
C       -0.22820000      -2.26610000       1.63050000
C       -2.66600000      -1.63880000       0.25870000
C       -1.66180000      -2.38560000      -0.34480000
C       -0.54520000      -2.75180000       0.37060000
C       -1.62490000      -0.84370000      -2.19220000
C       -1.13120000      -2.02310000      -1.61950000
C        0.67760000       0.13880000       2.62150000
C        1.61210000      -0.83760000       2.19950000
C       -0.69560000      -0.11780000       2.61870000
C        1.14900000      -2.02210000       1.61550000
C        1.67240000      -2.40210000       0.34730000
C        2.63690000      -0.15520000       1.58610000
C        3.18080000      -0.56070000       0.40120000
C        2.66760000      -1.64880000      -0.27720000
C        0.56480000      -2.77210000      -0.38700000
C       -1.14540000       2.02170000       1.63080000
C        0.23800000       2.28230000       1.64010000
C       -1.63960000       0.84490000       2.20580000
C        1.15700000       1.39120000       2.17850000
C        2.35520000       1.17120000       1.53000000
C       -3.21490000       0.54810000       0.39760000
C       -2.67040000       1.64510000      -0.25490000
C       -2.67230000       0.18210000       1.58920000
C       -1.66730000       2.39340000       0.35670000
C       -0.54960000       2.76030000      -0.35830000
C        2.67780000       1.64580000       0.25920000
C        1.66930000       2.40110000      -0.33980000
C        0.56540000       2.77880000       0.38580000
C       -2.66610000      -0.16390000      -1.59120000
C       -3.21670000      -0.56130000      -0.41500000
C       -0.24340000       2.26250000      -1.61710000
C       -1.16330000       1.38100000      -2.16630000
C       -2.36070000       1.16000000      -1.53130000
C        1.13860000       2.00520000      -1.60580000
C        1.62720000       0.82550000      -2.18590000
C        3.20070000       0.55820000      -0.41320000
C        2.67130000       0.15150000      -1.59880000
C        0.24820000      -2.28760000      -1.64610000
C        1.16970000      -1.40000000      -2.19320000
C        2.37360000      -1.17790000      -1.55830000
C       -0.68610000       0.12960000      -2.61120000
C        0.68380000      -0.13940000      -2.61520000
46
Properties=species:S:1:pos:R:3 Geometry=T Step:=T 0=T Formation_E=-160.87 Library_id=109 Point_group=C2 spice_energy=-47715.95870586189 maceoff23_energy=-47709.46875 maceoff24_energy=-47717.3671875 castep_energy=-7226.823175115 gomace_energy=-7224.53466796875 pbc="F F F"
C       -1.68110000       1.33980000       2.07890000
C       -0.65690000       0.67640000       2.67350000
C        0.62680000       1.13420000       2.49250000
C        0.89380000       2.18600000       1.57500000
C       -0.15460000       2.65960000       0.71930000
C       -1.47580000       2.30900000       1.10200000
C        0.05870000      -1.57670000       2.37120000
C        1.39320000      -1.13330000       2.31800000
C       -0.98850000      -0.68760000       2.61090000
C        1.68650000       0.22210000       2.40670000
C        2.61990000       0.75930000       1.55740000
C        2.47520000       2.05010000      -0.18850000
C        2.15240000       1.95410000       1.09830000
C       -0.87650000       2.16190000      -1.57500000
C        0.17010000       2.65870000      -0.72140000
C        1.49070000       2.32180000      -1.12100000
C       -2.33930000      -1.70380000       0.90000000
C       -1.26740000      -2.57270000       0.62840000
C       -2.23270000      -0.77670000       1.95240000
C       -0.09960000      -2.54670000       1.37730000
C        1.11580000      -2.64070000       0.73030000
C        2.03200000      -1.83320000       1.30860000
C       -3.21130000       0.92150000       0.54990000
C       -3.26510000       0.05780000      -0.52690000
C       -2.69540000       0.50100000       1.72920000
C       -2.85250000      -1.26250000      -0.35930000
C       -2.01900000      -1.82010000      -1.30980000
C       -1.10790000      -2.63570000      -0.74020000
C       -2.13180000       1.92410000      -1.08100000
C       -2.47290000       2.03750000       0.19800000
C       -2.61380000       0.74140000      -1.56130000
C       -0.07330000      -1.58530000      -2.36390000
C       -1.40530000      -1.12580000      -2.33750000
C       -1.68730000       0.22930000      -2.43700000
C        0.95920000      -0.67050000      -2.58790000
C        2.33910000      -1.72060000      -0.86380000
C        1.27130000      -2.60920000      -0.64010000
C        0.10980000      -2.57610000      -1.38890000
C        2.19170000      -0.77490000      -1.89860000
C        3.18560000       0.91270000      -0.52730000
C        3.27770000       0.04820000       0.54600000
C        2.88900000      -1.27700000       0.37650000
C        2.64550000       0.50830000      -1.70350000
C       -0.62850000       1.13840000      -2.53510000
C        0.66610000       0.70650000      -2.70890000
C        1.68460000       1.37240000      -2.11670000
48
Properties=species:S:1:pos:R:3 Geometry=T Step:=T 0=T Formation_E=-169.5852 Library_id=199 Point_group=C2 spice_energy=-49791.81810395106 maceoff23_energy=-49786.58984375 maceoff24_energy=-49793.16796875 castep_energy=-7542.877316226 gomace_energy=-7540.7265625 pbc="F F F"
C        2.57990000      -1.91550000      -0.02350000
C        1.63500000      -2.60550000       0.64430000
C        3.00280000      -0.90300000       0.76470000
C        3.11980000       0.38070000       0.31030000
C        2.87950000       0.61440000      -1.04780000
C        2.13620000       1.74530000      -1.40660000
C        1.61930000       2.58070000      -0.42710000
C        0.31020000       3.00130000      -0.58260000
C        2.30190000      -0.96850000       1.92120000
C       -0.97290000      -2.37140000       1.48520000
C        0.07220000      -1.82220000       2.30490000
C        1.39120000      -2.02140000       1.88160000
C       -0.20710000      -0.53990000       2.86360000
C        1.28210000       1.36760000      -2.41770000
C       -0.54650000       2.57080000      -1.58020000
C       -0.04230000       1.70000000      -2.52830000
C       -1.75870000       2.29920000      -0.92250000
C       -2.48770000       1.16850000      -1.30440000
C       -1.96740000       0.29430000      -2.28990000
C       -0.71790000       0.52070000      -2.84090000
C       -2.30700000      -0.96500000      -1.89720000
C        1.44900000       0.04620000      -2.64250000
C        2.44160000      -0.46810000      -1.86250000
C        2.22050000      -1.72430000      -1.32470000
C        0.22070000      -0.54640000      -2.87540000
C       -1.37730000      -2.00190000      -1.85030000
C       -0.05860000      -1.81690000      -2.30300000
C        0.97340000      -2.37620000      -1.48630000
C       -1.64770000      -2.59580000      -0.62560000
C       -0.64690000      -2.96180000       0.22180000
C        0.64800000      -2.96720000      -0.22580000
C       -2.63840000      -1.93840000       0.01370000
C       -0.31340000       3.03020000       0.60710000
C       -1.62190000       2.60880000       0.44020000
C       -2.12850000       1.74350000       1.39170000
C       -2.86530000       0.60770000       1.02270000
C       -3.13380000       0.36280000      -0.33390000
C       -3.06780000      -0.92550000      -0.77180000
C        2.50170000       1.17050000       1.30720000
C        1.76430000       2.30110000       0.94110000
C        0.04550000       1.71250000       2.52560000
C        0.55460000       2.59660000       1.59320000
C       -1.27460000       1.34530000       2.39890000