20
Properties=species:S:1:pos:R:3:spice_forces:R:3:maceoff23_forces:R:3:maceoff24_forces:R:3:gomace_forces:R:3:castep_forces:R:3 Geometry=T Step:=T 0=T Formation_E=-55.9116 Library_id=0 Point_group=Ih spice_energy=-20732.213297261293 maceoff23_energy=-20687.998046875 maceoff24_energy=-20711.826171875 castep_energy=-3129.489483401 gomace_energy=-3119.375732421875 pbc="F F F"
C        1.56910000      -0.65660000      -0.93640000       1.34354558      -0.18235864      -3.16830679     115.96144867     -46.34275055     -65.29771423      13.31126022      -7.01887369      -7.37411404       6.38532209      -2.09871221      -3.17931652       2.42669000      -1.05120000      -1.85846000
C        1.76690000       0.64310000      -0.47200000       1.65210355       0.64558980      -1.04307603     131.72541809      42.77299500     -34.94475555      14.46452713       5.62495518      -3.19656610       6.56404305       2.80331922      -1.60382104       2.61813000       1.32248000      -0.75934000
C        0.47050000      -0.66520000      -1.79270000       3.14070814      -2.65315273      -2.18437711      41.52128601     -42.62991333    -130.86761475       4.90173721      -6.35449505     -15.72169495       3.03092837      -2.19389439      -6.25811815       1.98929000      -1.38583000      -2.38569000
C        0.01160000       0.64780000      -1.82550000      -1.01627566       3.47057077      -2.43772542     -12.88685608      49.84785080    -128.22225952      -0.09617186       6.49373198     -15.41037273      -1.48257446       2.53959513      -6.86437941      -1.03648000       1.69894000      -2.86751000
C        0.79300000       1.46730000      -1.02840000       0.74679488       0.52556163      -3.50280966      55.60100555     104.33938599     -76.76218414       6.49984360      12.02936554     -10.30160236       3.20430923       4.84679127      -4.19384956       1.37593000       1.79331000      -2.13911000
C       -0.48740000      -1.48180000      -1.21570000      -0.27011803      -0.49863002      -1.39146494     -40.20072556    -106.95990753     -85.73362732      -3.61323619     -13.70919609     -10.64912796      -2.84761024      -4.94678211      -4.26045799      -1.09935000      -2.11786000      -1.77382000
C       -1.56350000      -0.65720000      -0.89520000      -2.14396638      -0.27719137      -1.46700828    -119.52668762     -32.19961929     -61.33660126     -13.22597313      -4.34843254      -6.23892927      -6.46060371      -1.58669603      -3.41471004      -2.75560000      -0.53984000      -1.38586000
C       -1.26940000       0.64900000      -1.27670000      -0.39360149       0.67386374      -2.34513589     -87.79574585      34.92099762     -99.12953186      -9.63336372       5.03870678     -10.24825954      -4.74536419       2.14433384      -5.51770258      -1.60086000       0.92233000      -2.49979000
C       -0.00230000      -1.96180000      -0.00720000       3.68540231      -3.45373412       0.16755707       0.89358771    -143.54475403       9.29851818       0.03728306     -17.56431770      -0.15997756       0.74279493      -7.18587875       0.43815851       1.21281000      -3.16992000       0.10411000
C       -0.76980000      -1.45320000       1.03590000      -1.41095579      -0.48888700       3.37867508     -61.68498230    -104.61866760      69.06411743      -6.36956358     -12.58769894       8.93731213      -3.91957784      -4.90892887       3.71417904      -1.84394000      -1.77194000       1.96126000
C       -1.75760000      -0.63800000       0.47420000      -1.62269016      -1.01508221       0.94020334    -122.28398132     -48.25283051      29.76753807     -14.77111721      -5.40784454       2.82850599      -6.50764418      -2.82632303       1.28226209      -2.56738000      -1.51102000       0.57453000
C        1.28780000      -1.45030000       0.16290000      -0.15974075      -5.19110528       0.70095382      90.41770172    -100.52700806      10.27453709      12.12173748     -12.85043907       0.55207652       4.27184105      -5.74670410       0.74251592       1.49830000      -3.36796000       0.22901000
C        1.28960000      -0.65950000       1.30470000       0.59256655      -0.12483745       1.53766227     100.17848206     -49.04557037      96.26232910      10.18930817      -6.42740202      10.28183079       5.14032269      -1.57206130       4.90472507       1.80877000      -0.45223000       1.97967000
C        0.01150000      -0.64600000       1.85330000      -0.17817202      -3.83497558       2.09061807      -0.40329075     -48.17204666     129.50753784      -0.35598755      -6.50523853      16.25175285      -0.04495057      -3.07347679       6.24145794       0.02044000      -2.03723000       2.45768000
C        1.58300000       0.64540000       0.89840000       1.90348360       0.31052692       1.63792989     110.04789734      49.97762299      66.57292938      12.65147972       6.82166767       6.88420153       5.77364445       1.94179678       3.72068834       2.46147000       0.61778000       1.56791000
C        0.48480000       1.43830000       1.19370000      -0.58270696       1.38502280       1.56938042      30.80929184      99.20858765      84.87934875       4.54975271      11.76383018      10.83095169       1.77870488       5.73155785       4.08057976       0.20039000       2.80574000       1.74946000
C       -0.50320000       0.64690000       1.77530000      -1.91394892       3.21956415       2.09879374     -31.88327980      56.70210266     121.69714355      -4.22664881       6.80825186      15.83995247      -1.00196815       2.91875839       6.27195263      -0.78982000       1.96865000       2.40564000
C       -1.60620000       0.67150000       0.92310000      -0.43555440       0.06700023       3.51457273    -116.96722412      39.51047897      75.04204559     -13.67173195       5.21360636       9.29787445      -5.41544056       1.78462148       4.17483425      -1.75145000       0.96442000       2.19160000
C       -1.29590000       1.48910000      -0.16550000      -0.33936373       4.20035286      -0.78399191     -91.67350769     100.62075806     -19.04383087     -10.90008068      15.03285980      -2.23475313      -5.03295040       4.49087954      -0.96250284      -2.13195000       2.32435000      -0.38161000
C       -0.01020000       1.97270000      -0.00630000      -2.59767579       3.21920461       0.68814169       8.15013599     144.39228821       8.97207451      -1.86306262      17.94696426      -0.16905665       0.56677115       6.93780327       0.68350625      -0.03540000       2.98703000       0.83032000
24
Properties=species:S:1:pos:R:3:spice_forces:R:3:maceoff23_forces:R:3:maceoff24_forces:R:3:gomace_forces:R:3:castep_forces:R:3 Geometry=T Step:=T 0=T Formation_E=-69.182 Library_id=0 Point_group=D6d spice_energy=-24880.416595673865 maceoff23_energy=-24869.11328125 maceoff24_energy=-24861.69140625 castep_energy=-3757.454830081 gomace_energy=-3750.05126953125 pbc="F F F"
C        1.14300000      -2.00480000       0.34000000       0.88230264      -2.58213095       1.76665678       1.94241774      -3.88956308       1.43184590       4.61635256      -8.00263309      -1.23270130       3.21218133      -4.69087696       3.96584368       1.61997000      -2.36089000       1.71999000
C       -0.01940000      -2.33110000      -0.32930000      -0.12847762      -2.92453418      -0.85370981      -0.56584185      -3.18740606      -2.26910353       0.41247749      -9.79353142       1.16705894       0.75436616      -5.39498425      -4.01148605       0.24994000      -2.88896000      -1.68357000
C        1.99990000      -1.14140000      -0.32750000       1.46553538      -1.32257987      -1.92659985       3.81283355      -1.86002970      -1.59126306       8.13598251      -4.95393133       1.63276291       4.80230761      -3.05404902      -4.03868341       2.46454000      -1.72665000      -1.73879000
C        0.00350000      -1.38660000      -1.36270000      -1.73260293       1.32584072      -4.41205108       0.29405290       4.57956934       1.46592140      -0.36800179      -3.93156624      -6.45470810      -0.69300950      -1.54079628      -6.40974808      -0.77525000       0.34272000      -3.61093000
C        1.20520000      -0.68140000      -1.37640000      -0.19795834      -0.60909907      -2.15994981      -4.56428862       2.10909224      -0.12494850       3.88161063      -2.57450390      -7.29895830       1.36092901      -0.89691514      -6.05489254      -0.08469000       0.04020000      -3.22582000
C        2.31790000       0.01540000       0.34490000       2.11817784      -0.00507722       1.79819693       4.69053459       0.27506819       1.79771209       9.70051575      -0.31042552      -1.08285141       5.49541569      -0.55390114       3.73604918       2.96767000      -0.31220000       1.63845000
C        2.00400000       1.17560000      -0.33580000       1.81347945       2.15447173      -1.45512104       3.01985836       2.04789591      -1.95793355       7.83570671       4.99351072       1.28928757       4.60488319       2.57282472      -3.96601605       2.24886000       1.46978000      -1.74766000
C        1.20540000       0.71470000      -1.39810000      -1.19366119       1.17030883      -3.30124918      -3.47713447      -2.48666501       1.65276623       4.66823006       2.28071642      -6.70131397       1.70299363       0.75996327      -5.85141659       0.00960000      -0.01034000      -3.20867000
C        1.39740000      -0.01100000       1.39600000       0.10246223       1.81287850       2.21005658      -4.93431807      -0.45020592      -0.46880341       5.41227055       0.68427742       7.14750957       1.77289987       0.97939068       5.99643373      -0.06336000       0.72102000       3.10044000
C        0.69180000      -1.21380000       1.39820000      -1.57768737      -1.01413851       2.78619191      -2.36918926       4.71295738      -0.48255205       2.35172224      -4.70779181       6.51015568       0.94158083      -1.73131061       5.92018366      -0.13804000      -0.36724000       3.21138000
C       -0.70150000      -1.23720000       1.38370000       0.76545748       1.05565902       4.75411414       2.28881001       3.88393664      -1.18169832      -3.21540499      -4.44287014       6.78050375      -1.30933213      -0.98709631       6.63778639      -0.11074000       0.56574000       3.77033000
C        0.71290000       1.20850000       1.37870000      -1.52236522      -1.18059291       4.93696919      -1.97150898      -3.90200019      -1.54194427       2.36490178       4.62530231       6.86153316       0.06227684       1.22723663       6.24054432      -0.67638000      -0.47849000       3.92401000
C       -0.68160000       1.18370000       1.38350000       1.85176657       0.93206938       2.93718043       1.55663395      -4.21555376      -0.92082667      -1.84217453       3.87604666       6.83464336      -0.35951984       2.04868603       5.63733292       0.48103000       0.38836000       3.08685000
C       -1.38590000      -0.01880000       1.37160000       0.11043458      -1.09145866       2.62340926       5.11542273       0.56108660      -0.87565136      -4.60972404      -0.13096693       6.21816635      -1.64008641       0.27604732       6.49640560       0.15812000      -0.12997000       3.57471000
C        1.15770000       2.02920000       0.34180000       1.77328920       2.33997905      -0.11404479       1.32069206       3.20604706       2.47625875       5.72792006       7.65467691      -1.39080334       3.21653366       4.29531765       3.11235881       1.76020000       2.35817000       0.82381000
C       -2.01520000      -1.18420000      -0.33210000      -2.30678094      -0.40649105      -1.39451650      -1.97398174      -2.88842726      -2.06149721      -9.09664917      -4.02091074       0.80322456      -5.12862587      -1.62126923      -3.85637546      -2.81229000      -0.49775000      -1.82092000
C       -1.18900000      -2.04460000       0.35090000      -0.44690870      -2.92655863       0.75545382      -2.95671082      -3.74219465       2.04738545      -5.09730005      -9.54246044      -0.30570126      -2.29079986      -4.78763676       3.26282167      -0.85792000      -2.67514000       1.42266000
C       -2.31220000      -0.00100000       0.33440000      -2.39255023      -1.25124138       1.69080468      -3.68533134       0.34203076       1.75442386      -9.28900909      -0.80347943      -0.93494129      -5.53418541      -0.24873629       3.84196854      -2.83109000      -0.53711000       1.53110000
C       -1.99290000       1.16280000      -0.33550000      -1.50690188       1.34435441      -2.24250361      -4.59906816       2.25058436      -1.29796541      -7.50719833       5.08617306       1.75821066      -4.77289009       2.76626420      -3.93997025      -2.35288000       1.66153000      -1.75228000
C       -1.12980000       2.00480000       0.34150000      -0.94898968       2.12703451       0.83679177      -1.36617112       3.48777485       2.86140347      -5.40806437       8.24833488      -2.25312757      -3.34105730       4.26303291       3.42312860      -1.86997000       2.33567000       1.17071000
C        0.01080000       2.32710000      -0.37200000       0.13582118       3.13086734       0.14952186       0.68228304       4.42093658      -2.19075584      -0.83306611       9.70806694       1.23716593      -0.46723264       5.55826378      -2.42918539      -0.18271000       3.03374000      -0.48802000
C       -1.21030000      -0.68840000      -1.36860000       1.67452928      -1.54481670      -3.79325478       3.57003736       2.24591899       1.16767597      -3.06685805      -2.67723870      -6.42762995      -1.08443296      -1.39089310      -6.54701138       0.59159000      -0.55437000      -3.49110000
C       -1.20630000       0.70850000      -1.40110000      -0.31826287       0.43162214      -1.61548111       4.64609432      -2.95828748       0.25786066      -5.16768360       2.09463787      -6.89588356      -1.73976672       0.76341176      -5.72110510      -0.21305000      -0.01516000      -2.91277000
C       -0.00430000       1.41660000      -1.42690000       1.57276406      -0.96915195      -3.97726275      -0.47612572      -4.54256630       0.05168581       0.39344206       6.64056921      -7.26161289       0.43457133       1.38802707      -5.44496965       0.41687000      -0.36266000      -3.29391000
26
Properties=species:S:1:pos:R:3:spice_forces:R:3:maceoff23_forces:R:3:maceoff24_forces:R:3:gomace_forces:R:3:castep_forces:R:3 Geometry=T Step:=T 0=T Formation_E=-78.2335 Library_id=0 Point_group=D3h spice_energy=-26956.659075701515 maceoff23_energy=-26942.05859375 maceoff24_energy=-26939.06640625 castep_energy=-4073.055624131 gomace_energy=-4068.21728515625 pbc="F F F"
C       -2.03950000       0.64990000      -1.09300000      -2.73188864       1.28953186      -3.70757439       1.70694172      -1.19097054       1.47852206     -13.04297829       2.74305844      -5.21158218      -3.53558826       1.95268881      -5.14033794      -2.37899000       1.10709000      -3.14994000
C       -1.23240000      -0.22710000      -1.81620000       0.90371309       1.29228376      -2.02439511      -3.62195039      -3.46815348      -0.70274687      -1.71172357      -1.28737044     -12.32941723      -0.65953380      -1.74922526      -4.34951973      -0.50417000      -0.59164000      -2.16701000
C       -2.55820000      -0.00860000      -0.00810000      -1.79053792       0.90089389      -0.12748421     -11.75478745      -0.53077781      -0.76996231      -8.77882671       0.20909935      -0.61391133      -5.96993589       0.42447236       0.74726689      -2.64401000       0.35109000       0.54533000
C       -2.03060000      -1.26790000       0.00690000      -2.39180885      -2.93231667      -2.64672888       2.71974373       2.42559004       0.20819670     -14.61662865      -6.79521370       0.65270448      -3.70189047      -4.93471289      -0.25426763      -2.77169000      -3.03107000      -0.21921000
C       -0.00740000      -1.91920000      -0.67980000       0.00634617      -1.05552951       0.60830419       0.27301383      -0.22618866      -0.38655424       0.62861228      -2.82697392     -11.49522591       0.55338103      -4.05987072      -1.48780179       0.43922000      -1.99779000      -0.51346000
C       -1.22740000      -1.43790000      -1.11630000      -1.96097601      -2.73502999       0.35204396      -3.04041815       0.63226700      -2.87457228      -1.46536350      -8.37735271      -7.10289812      -0.59255505      -3.08868384      -3.42174864      -0.83645000      -1.41716000      -1.44671000
C        1.21960000      -1.41110000      -1.08880000       2.31279245      -2.25157107      -0.53030740       3.29133821       0.53678226      -2.58137727       0.70035791      -8.06673336      -6.09578609       0.19177592      -3.22485185      -4.07683420       0.80266000      -1.42143000      -1.91492000
C       -2.01390000       0.61520000       1.09120000      -2.65593424       3.45034565       0.37942061       3.24369836      -0.99969774      -2.12619567     -14.06985760       3.10275364       5.81681395      -4.03362417       3.00500441       3.92743778      -2.97258000       1.80335000       1.90618000
C       -1.23290000      -1.45340000       1.13090000       1.34010125       0.34942196       3.89021440      -4.71117783      -0.16307497       3.19556403      -0.67877293      -9.37209511       7.27598238      -0.20823371      -3.20435667       3.73416495      -0.23943000      -0.95683000       2.21017000
C       -1.22620000      -0.24310000       1.84700000       0.87884857      -4.00733391       1.58539166      -4.81075811      -2.76189661       1.33373785      -2.26148176      -1.83120322      11.47141075      -0.93028855      -2.05636692       4.03978491      -0.65325000      -1.89273000       1.77254000
C       -1.22670000       1.67840000       0.67050000      -1.73761903       1.81480077       1.93489212      -3.02506614       1.91712904      -0.90709782      -1.14625192      10.59339523       4.30500364      -0.09455454       4.51163101       1.81432247      -0.68330000       2.32905000       0.65986000
C       -1.22850000       1.72100000      -0.72550000       0.16021825       1.34112072      -0.51747865      -3.78860545       3.12040520       2.65203428      -1.65550923      11.22736359      -4.17456722      -1.04692507       4.29375648      -0.41158897      -0.93390000       2.04058000       0.22945000
C       -0.00560000       1.59770000      -1.37290000      -0.32414994       2.74071514      -0.70257495       0.51527637       2.10699844      -0.92369962      -0.19716318      10.57864571       1.86432362       0.46593112       3.50064850      -2.78476644       0.05418000       1.60257000      -1.44576000
C       -0.01020000       1.53820000       1.32790000       0.41267232       0.68324851       0.20269234      -0.18071347       1.63755667       0.35002208       0.40820265      12.45950890      -6.32665777       0.24398214       3.77101922       2.55695868       0.47476000       2.03957000       0.82920000
C        1.19920000       1.66490000       0.65960000       1.45812181       2.78955018       1.24624953       2.80606341       1.42105556      -1.25185442       0.59560704      10.35533047       4.56572628       0.58606219       4.29436302       1.43243456       0.63573000       2.56588000       0.54853000
C        1.23700000       1.70290000      -0.73640000      -1.03695514       1.23878764       0.61275616       3.49337816       2.57442904       2.27296400       1.48775005      10.07217407      -4.11572981       0.35797006       5.07075167      -0.18765604       0.56565000       2.14001000       0.54444000
C        0.00780000       0.35650000       2.08530000       0.35471307      -0.38968026       2.84373386      -0.49716750       2.16235399       1.43897700      -0.62644756      -9.96368408      10.21074104      -0.33062491       0.92698336       3.84022069       0.09699000       0.02758000       1.91319000
C        1.23320000      -0.20500000      -1.81640000       0.31793608       0.02406990      -0.55711744       3.05537724      -2.97353458      -0.34561896       1.35720491      -1.10091543     -11.42904472       0.70452464      -2.91740322      -4.33577442       0.98418000      -1.40634000      -1.59708000
C       -0.00290000       0.38410000      -2.06110000      -1.17625110      -0.69104309      -3.04444620       0.46610969      -1.07489991      -2.16969800       0.30823150      -6.96424389      -8.78435326      -0.01286049       0.79685402      -4.03732014      -0.40621000       0.49703000      -2.08424000
C        2.06630000       0.65600000      -1.11620000       3.31254073       0.74029374      -3.58729192      -1.68144310      -0.76607341       1.07802713      12.79845238       3.72022009      -6.52748585       3.47825432       2.05096507      -4.65394688       2.64439000       1.20511000      -3.03816000
C        2.56080000      -0.00990000      -0.01670000       2.58224008       1.15718197       0.55163995      11.71974564      -0.49126160      -0.94621825       8.20460224      -0.43884742       0.64285636       5.85897589       0.46461204       1.30564928       2.51807000       0.47999000       0.73119000
C        1.99130000       0.60650000       1.07890000       2.97947028       1.97734127      -1.27080828      -2.65714741      -0.60190105      -2.05914569      14.51054001       2.19961834       6.00491047       4.27555704       2.70055294       3.64292097       3.13007000       1.30273000       1.43344000
C        0.00810000      -1.96400000       0.72010000      -0.12331123      -2.46445513       1.43254910      -0.21525756      -2.27770805      -0.63804698      -0.56703305      -2.95596218      12.26924515      -0.36483157      -3.76035309       1.41647696      -0.12693000      -1.79943000       0.92130000
C        1.24890000      -1.48020000       1.15490000      -1.74795799       0.13533472       3.67282026       4.39358425      -0.44597292       3.29093742       1.72204757      -9.41508198       7.39552164       0.25952935      -3.15939593       3.33175993      -0.10095000      -1.17628000       1.88616000
C        1.23580000      -0.26660000       1.85210000      -1.57248713      -3.43823303       2.62326932       5.11329174      -2.71612763       1.80720568       3.33654976      -1.31911314      11.74258423       0.66886294      -1.16054296       4.11609268       0.13596000      -1.12861000       2.28246000
C        2.03480000      -1.27470000       0.02110000       2.22976800      -1.96374968      -3.22637420      -2.81306887       2.15367150      -0.42339993      14.75988579      -6.54637051      -0.01116681       3.83664083      -4.44853973      -0.76392901       2.77001000      -2.67232000      -0.83695000
28
Properties=species:S:1:pos:R:3:spice_forces:R:3:maceoff23_forces:R:3:maceoff24_forces:R:3:gomace_forces:R:3:castep_forces:R:3 Geometry=T Step:=T 0=T Formation_E=-89.0451 Library_id=0 Point_group=Td spice_energy=-29032.33592265433 maceoff23_energy=-29016.125 maceoff24_energy=-29028.7265625 castep_energy=-4389.413307851 gomace_energy=-4388.0390625 pbc="F F F"
C       -2.02221000      -0.57301000      -1.06177000      -2.34613610      -3.68990542       0.57004543      -4.13609743      -2.67538691      -0.44473341       0.95774794      -1.64188886       2.68653679      -2.97760701      -2.86856651       0.74101037      -1.87273000      -2.04303000       0.71090000
C       -0.87291000      -1.74728000       1.25966000      -0.52122559      -0.11980002      -0.54485819       2.60125136       0.15566397       1.98503327       1.49537396       1.01856899       0.00665236      -1.05243278      -1.38319492       0.55834317      -0.94504000      -0.88703000       0.10320000
C       -1.75620000      -0.64754000       1.42413000      -2.09042031      -1.42424696       0.67510746      -3.92145205      -2.69808722       1.20425367       0.38990736      -1.49026370      -2.93723536      -3.08626938      -2.83053589      -0.21504855      -1.96722000      -1.98220000      -0.35963000
C       -2.30711000      -0.08656000       0.24165000      -0.03787056      -0.67101848      -0.08072632      -0.19413376       3.45987129       0.13071065       1.35336351       1.28270793      -0.09329242      -1.76177537      -0.54769844       0.17775531      -1.07628000      -0.68432000       0.06677000
C       -1.66894000       0.47098000      -1.95718000       1.72444498      -0.13988513       2.32706724      -1.99969018       0.52710724      -2.33958817      -5.35053635       1.49566722      -6.25473070      -0.56093895       0.17725375      -0.65119505       0.20558000      -0.05371000       0.26511000
C       -1.92450000       1.28095000       0.24239000      -0.46150749       1.85387343       0.26393137      -1.90000582      -2.85228944       0.09122196       0.43543911      -1.83929110      -0.11238825      -1.17440760       1.35161805       0.15552449      -0.53076000       1.13612000       0.07416000
C       -1.42376000       1.54417000      -1.06012000      -0.59047877       3.05185575       0.84789210      -2.10750794       4.41244173      -0.42454675       1.66290545       0.97389746       2.72076130      -1.05683959       4.02326965       0.69413996      -0.55317000       2.71088000       0.69554000
C       -1.21759000       0.34409000       2.28611000      -0.18350625      -0.73517224      -0.87110291      -1.47102427       0.34374362       2.74620152      -3.92937016       1.02953625       7.32309723      -0.42887646       0.07093447       0.76274967       0.11869000      -0.08812000      -0.31692000
C       -0.34814000       0.09870000      -2.32249000       2.66437880      -1.75446588      -3.13511906       1.45036459      -0.42410314      -4.65651178       3.05432749      -0.86182719       1.16575146       2.40707779      -0.68967021      -3.40248775       1.81641000      -0.53048000      -2.11982000
C       -0.05034000      -1.24222000      -1.96207000       3.12931739       1.41575457      -2.07947002      -2.73774290      -1.66237748       1.05080533      -1.01762772       0.14562416       1.58911514       0.34136817      -0.67183125      -1.64972925       0.54205000      -0.24862000      -1.14419000
C        1.13472000      -1.61900000      -1.27634000       0.82081074       0.28524992      -4.37465812       2.45500398      -1.48706079      -3.99524140      -0.36336994       3.04268289      -1.25568914       1.80394912      -0.02186012      -3.78033376       1.11884000       0.23436000      -2.60343000
C        0.60687000       1.08569000      -1.96149000       0.26648994      -0.62755699      -0.36441656      -1.47454548       2.84834361       1.12651610      -0.93498993       0.43971109       1.57311535       0.63560081       0.39463812      -1.66004038       0.55032000      -0.03196000      -1.13350000
C        1.81368000       0.78759000      -1.27499000       1.45657098      -0.04017502      -2.16451679       2.87271547       0.01974148      -4.02562761      -1.93883538      -2.41558075      -1.21502733       1.56490088      -0.94793940      -3.80058026       0.85903000      -0.81383000      -2.59371000
C        2.04002000      -0.57550000      -0.94756000      -0.18860054       0.04741899      -0.69806963       1.44708943      -0.37501675       3.11831713      -0.72552729       0.23691738       1.72463608       1.38362551      -0.35387045      -1.16169202       0.71996000      -0.17422000      -1.03287000
C       -0.08802000       2.01828000      -1.14674000      -0.52132518       1.81565323       0.39782207       1.73465204      -1.30307460      -2.61325979       0.74349904      -1.75647593      -0.27915239      -0.27233610       1.73202503      -0.48060673      -0.32874000       1.22240000      -0.03819000
C        1.36871000      -1.68426000       0.90890000       1.78829574       0.13634668       2.65535897       3.18858385      -1.70595872       3.30222797      -0.05633736       2.93971205       1.48819828       2.53072667      -0.25972927       3.36903858       1.64458000       0.09634000       2.35800000
C        0.86174000      -2.46127000      -0.16616000      -0.70389107       2.73933965       0.58521719       1.05982423      -2.93678975      -0.21848756       2.79495478      -7.85524273      -0.53407210       0.36010611      -0.80396593      -0.04939453      -0.04446000       0.35050000       0.01167000
C        0.35798000      -1.35904000       1.85187000       1.18095747      -0.04686423       1.55245565      -2.90350819      -1.63145232      -0.46149874      -1.34726810       0.31004381      -1.29808474       0.61030734      -0.73354161       1.53839099       0.67816000      -0.27822000       1.03292000
C        2.19179000      -0.61617000       0.46374000       1.11075154      -0.18297758       1.49254076       0.68208933      -0.22162682      -3.38516736      -1.07551908       0.24619627      -1.54397941       1.55108058      -0.51452905       0.78860027       0.89034000      -0.31340000       0.82998000
C       -0.53901000      -2.28794000      -0.01026000      -3.93423355      -1.86977872      -0.58022877      -3.17821288      -3.85737228       0.22378579      -2.48999166       2.28765392       0.34650880      -3.53090096      -2.21759462       0.28859591      -2.52261000      -1.26399000       0.24278000
C       -1.12953000      -1.67416000      -1.14646000      -2.85592440      -0.92297091       2.52569034       2.16991186       0.27741289      -2.59878588       1.48052859       1.10462570      -0.24582911      -1.16526341      -1.32619214      -0.48684728      -0.98393000      -0.82782000      -0.02320000
C        2.04507000       0.72297000       0.91279000       1.51551953      -1.73492961       1.98907231       3.65935040      -0.23221824       3.32272315      -1.64836740      -2.51120591       1.47219133       2.34218025      -1.19178629       3.29518104       1.39626000      -0.99417000       2.28623000