64
Lattice="20.0 0.0 0.0 0.0 20.0 0.0 0.0 0.0 20.0" Properties=species:S:1:pos:R:3:momenta:R:3:spice_forces:R:3:castep_forces:R:3:maceoff24_forces:R:3:gomace_forces:R:3:maceoff23_forces:R:3 config_type=fullerene name=fullerene_60 spice_energy=-65369.53186676191 castep_energy=-10065.61386958 maceoff24_energy=-65357.05078125 gomace_energy=-10063.794921875 maceoff23_energy=-65365.5703125 pbc="F F F"
C       12.41493373      12.70127021       9.46273674      -0.54822179      -0.56682806       0.50153144       0.64444046      -2.19713420      -1.94789707       0.92624000      -2.12846000      -2.41250000      -0.37252593      -0.03744316       0.11632770       1.14428890      -1.96177936      -2.54993510       0.22144794      -1.92891800      -1.59415102
C       11.81759061      13.14412093      10.61542830      -0.06858773      -0.16201085      -0.12200303      -1.39300161       0.18374059      -0.13001937      -1.51381000       0.43557000       0.41167000       1.34505963      -0.29979396      -0.94597316      -1.52227116       0.51214701       0.50706273      -1.15327501       0.00246459      -0.57620698
C       11.64613868      12.63608265       8.22357651      -0.28053109       0.08316038      -0.49152364      -0.96517278      -0.97615455      -0.52929750      -0.21867000      -1.05815000      -0.51419000      -2.21343493       0.92980957      -0.29226995      -0.05719754      -1.02409959      -0.53031027      -1.17794967      -0.82456774      -0.50807595
C       10.31064407      13.03605190       8.22204228      -0.47944622      -0.70487659      -0.30790478       0.52654269       0.32758059       0.41769084      -0.15114000       0.54934000       0.31843000       2.76457357       0.47324300      -0.10959220      -0.49944431       0.61930585       0.14375240       0.95989859       0.09922367       0.43437698
C       13.03944296      10.67689278       8.23551988      -0.27350614       1.34709468      -0.41862085      -1.67353349      -1.48509484      -1.87211118      -1.42048000      -0.85790000      -1.74271000      -0.68611479      -1.34925604      -0.54211271      -1.27526581      -0.43130985      -1.71421731      -1.65373921      -1.54079878      -1.72583008
C       13.02254341       9.22841617       8.19423477      -1.01631569       1.17617435       0.83260558       1.05262503       3.32613498       0.56710584       1.05639000       2.57952000       0.48975000       0.17767382       2.59505367      -0.44111443       0.99570209       2.22547483       0.46186650       1.03278410       3.40604782       0.24467802
C       13.27424593      11.43959192       9.39806426      -0.28927415      -0.03396263      -1.07719616       0.05027415       0.26045337       3.59290174       0.02155000       0.52552000       2.83372000       0.67975879      -1.29027104       2.85591125       0.05606234       0.60902876       2.47758245       0.16879082      -0.23119190       3.72301841
C       13.50244413      10.71183356      10.62042286      -0.37334921      -0.39077944      -0.17302752      -0.54040229       1.59229512      -2.38956560      -0.33637000       1.21924000      -1.70727000      -0.17956519       2.40470600      -2.13035655      -0.13258719       1.15528131      -1.48536110      -0.71255714       2.18073320      -2.47163796
C       11.98018001      11.37785010       7.47227030       1.37771026      -0.73195692      -0.58346447       0.51896275       0.98322279       0.99710178       0.89458000       1.27432000       1.15041000      -0.16665709      -0.49558711      -0.65054655       1.00455189       1.28838253       1.13212192       0.03034270       0.68855047       0.75554454
C       10.99026062      10.71631320       6.77040117      -0.69770163       0.24616506       1.11444401       0.39025502      -0.21339492       0.16646710      -0.05365000      -0.37624000      -0.21363000       2.06666923       1.43611002       0.83392167      -0.19587040      -0.31902027      -0.30779284       0.66922653       0.33789593       0.39916122
C       10.37701172      13.56501552      10.63562117       0.56906989      -1.25461801       0.05090686       0.56748730       0.09372160      -0.76796876       0.83429000       0.16930000      -0.12339000      -0.54809940       0.89561081      -1.94733024       0.90050000       0.22207570       0.05429780       0.49090493      -0.13812411      -1.19612420
C        9.68023370      13.54607806       9.42694480      -0.65234274      -0.54055708      -0.22804044       0.34969414      -0.05267811       0.98547909       0.00771000       0.02240000       0.33829000       1.09807658       0.58275032       2.32833958      -0.15607382       0.06075096       0.17493793       0.54262167      -0.07829607       1.32977676
C        9.75910822      13.14287591      11.88712073      -0.87054488      -0.39355125       1.10507539      -1.63615062      -1.38132258       0.06922926      -1.06030000      -1.01490000       0.05030000      -2.40153265      -0.47751307       0.72575068      -0.96003067      -0.82767034      -0.03302032      -1.94477332      -1.56479335       0.16636050
C        8.37319723      12.66903692      11.92292483       0.55348989       0.78199043      -1.17974729       1.61951013       0.13110937      -2.82308351       0.97679000       0.08320000      -2.53668000       3.22615838       2.50404859       0.57273579       0.69725728       0.20081186      -2.27870655       1.75165534       0.17760730      -2.95337296
C       12.02155552      12.40033817      11.79497613      -0.24016862      -1.17605423       0.73120043       0.74074327      -2.22741323       2.37982296       0.46103000      -1.60966000       2.23881000       2.59867072      -0.62897277       1.54027200       0.27373004      -1.41122103       2.21923995       0.97742194      -2.55124640       2.51715541
C       12.87704488      11.24568057      11.83388683       0.05201556       0.06302301       0.23685270      -0.87157065      -0.97061406      -0.53712360      -0.42324000      -1.27861000      -0.44916000      -0.06450939       0.52284384      -0.68432236      -0.18616390      -1.39283061      -0.45276850      -1.05734599      -0.48814720      -0.76646662
C       10.77995173      12.39880316      12.62248969       0.78990778      -0.98514038       1.35067025       0.12308561      -1.64630597      -1.07670167       0.25846000      -1.03664000      -1.07393000      -0.42411351      -1.31537735       0.48308277       0.40652698      -0.91685390      -0.97475260      -0.00949842      -1.94980264      -1.09645176
C       10.41240877      11.14481773      13.19421527       0.39769437      -0.46822867      -1.03303470       0.09065268       4.35462436       0.52704553      -0.04097000       3.61123000       0.75913000       0.81181413       2.70964313       1.00969815      -0.06750596       3.31416130       0.79191691       0.29905236       4.48270512       0.11669713
C        8.30905597      13.12982767       9.41031791       0.59250625      -0.63407124       0.00672412      -3.30753661      -1.46368813       1.35248192      -2.83316000      -1.13190000       0.79866000      -2.27542210      -0.39491296       1.92137861      -2.75548720      -0.85455161       0.60700887      -3.55740309      -1.80318940       1.70119798
C        7.58585540      12.72316130      10.59685419       0.12241108      -0.55526341      -0.35168456       2.25866333      -0.99835244       0.34983910       1.77134000      -0.97029000       0.77671000       0.74789214       1.29718828      -2.05619264       1.50870180      -0.70637560       1.03661907       2.62570310      -0.96819580       0.08300984
C        8.00068465      12.38961912       8.16728542      -0.15217160       0.08345432      -0.27463781      -0.48895551      -2.01637623       0.76635763      -0.25697000      -1.44828000       0.66808000      -1.06247115      -1.36215365      -0.66067171      -0.24574351      -1.07798648       0.49723986      -0.75075972      -2.28563499       0.62282193
C        7.13194649      11.19227872       8.13351231      -0.10360196      -0.08828454       0.39895000       1.41376847       0.92505686       1.10453420       0.90231000       0.57565000       0.96973000      -0.15163183       4.73486614      -1.93277836       0.48691711       0.55113769       0.53652829       1.66750956       0.92669845       1.13396513
C        9.27740635      12.32805244       7.50958276       0.64453035      -0.72500485      -0.15288092      -0.01989582      -1.14519164      -1.45801897      -0.13320000      -0.45161000      -1.07644000       0.24687143      -0.61743569      -1.41042709      -0.02945195      -0.12879634      -0.93053740      -0.08126217      -1.28954232      -1.31808662
C        9.62116664      11.18271363       6.80749782       0.01479836      -0.93044861       0.09001586      -0.01648005      -0.01423637      -0.03996402       0.16223000      -0.50911000      -0.43467000      -0.02167806       1.09388566       0.02041411       0.27833843      -0.82927334      -0.69835126       0.08155191       0.14821845       0.20352674
C        6.77942383      11.47387145      10.55425168      -0.22558033       0.27864455       0.45225416       0.25666702       0.14935035       0.87354842       0.33764000       0.45906000       1.48634000      -2.41743493       1.70476186      -0.03958945      -0.15785563       0.66785353       1.89202285       0.17076516      -0.27664149       0.47390392
C        6.52007699      10.77138542       9.39773055      -1.12497337       0.55636557       0.09088253      -0.03281469      -0.81641016      -0.81225807      -0.21512000      -1.15901000      -1.37044000      -3.11770582       2.60691118       1.29434359      -0.68696284      -1.19847608      -1.52362764       0.18451798      -0.81140405      -0.32230413
C        7.07652426      10.66420691      11.77233535      -0.93092389       0.36112386      -0.68387582      -0.54687280       0.75059197       0.03104807      -0.53235000       1.44082000       0.02171000      -1.35070276      -1.46473765       0.85085797      -0.78951633       1.71077561       0.17357737      -0.32069147       0.22762485      -0.27843735
C        7.00170101       9.27915870      11.83641826      -0.77429517       0.12633019       0.70758664       0.41423844       0.81768765      -0.68442819       0.27828000       0.02156000      -0.60131000      -0.19237995       2.60565329       1.44859767       0.16970801      -0.10703066      -0.36336249       0.55625552       1.28051984      -0.89389378
C        8.07518393      11.38366160      12.54709408       1.69594078      -0.43298831      -0.12929785      -0.09438921       1.02668167       0.13689777      -0.58110000       1.23016000      -0.13235000       0.81462145       0.37773550       3.02801085      -0.77822185       1.33943772      -0.15800703       0.23442617       0.78222913       0.15640450
C        9.05143985      10.73193408      13.28549422       0.07561303       0.60245719       0.03693073      -0.41128879      -0.75028447      -0.32024400      -0.01987000      -0.98180000       0.11078000       0.19952416       1.39096487       0.06112170       0.02912295      -0.96614796       0.28515851      -0.68262887      -0.72186971      -0.86338788
C        6.52593354       9.26206373       9.41800106      -1.33296560       1.17991745      -1.14668324       0.63191897      -1.04608628       0.49774263       0.44346000      -0.60904000      -0.06634000      -1.22164774      -5.16886616       2.26380372       0.00928271      -0.72048646      -0.34111455       0.92856967      -1.11739600       0.87111712
C        6.69579713       8.49617022      10.60171102       0.23503766       0.48140505       0.77307591       1.01877866       1.40459063      -0.93559154       0.91742000       0.96027000      -0.25768000      -1.82890892       0.48025501      -3.20750451       0.63229489       0.86929983      -0.10111092       0.95330483       1.93674994      -1.39096200
C        7.23021828       8.78476373       8.19570195       0.77579245       1.16164441      -0.76770450      -0.68109436      -2.43106011       0.85740351      -0.97072000      -1.78907000       0.75148000       1.68926692      -5.09998131      -0.63044429      -1.12979293      -1.33420300       0.63154554      -0.23199373      -2.53099513       0.90908825
C        7.99329209       7.56460157       8.10816931       0.47376863      -0.28679101      -0.35225062       0.61197363       1.47561246       1.63354648       0.80962000       0.82170000       1.41285000      -3.42974353       1.10530221       0.46042991       0.79635161       0.57974023       1.13023829       0.46690178       1.75084066       1.64521837
C        7.56407895       9.92524975       7.45796885       0.85511458       0.53222782      -0.43047991       1.27007778       3.69417474      -1.08976819       0.59156000       3.31916000      -0.74769000       3.32780790       1.61612380      -3.14122462       0.22698605       3.08465528      -0.77308458       1.63619149       3.83184671      -1.06785989
C        8.78175668      10.01892435       6.79724860       0.53532973      -1.39242985       0.32560764      -0.35362676      -2.50856972      -0.69617675       0.27065000      -2.32231000      -1.03370000      -2.77195668      -1.01713336      -1.24277043       0.45374167      -2.34385395      -1.26493573      -0.76640236      -2.61787224      -0.21216738
C        7.63202744       7.34291987      10.59387113       0.82251295       0.69381129       0.95473407      -0.00760238       0.75069796      -0.64080358      -0.32110000       0.78937000      -0.09347000       0.05697989      -2.15212321      -2.00514650      -0.37819281       0.64461386       0.09173909       0.44330233       0.57447201      -1.20041299
C        8.25660648       6.87350807       9.42367843       0.22518583      -0.17820980       0.83880255       0.60665282       0.85854954      -1.94331951       0.80041000       0.50669000      -2.30269000      -1.07711339      -0.57307482       0.37389904       0.82043064       0.27195519      -2.33669353       0.33328855       1.19920874      -1.39162350
C        8.40326251       7.46421864      11.80747372      -0.02128819      -0.26492019      -0.53077632       3.05668360      -2.10750828      -0.06369190       2.34474000      -1.90960000      -0.06992000       2.78866315      -2.29092622       1.93110514       2.05881596      -1.79547894      -0.03719050       3.59830046      -2.10575533      -0.31272885
C        9.76926366       6.97906016      11.80692319       0.42108491       0.06931164      -0.30409462      -1.23116393       0.51288094       0.12277128      -0.70558000       0.19785000       0.08239000      -2.35973167      -0.33063316       1.51252925      -0.47742835      -0.03914011       0.14375538      -1.57295179       0.59361303      -0.09726983
C        8.07447053       8.62088527      12.56731710       1.19850885      -0.22200430      -0.46090963       0.56722757      -0.20379887       0.68559415       0.11411000      -0.37436000       0.50587000       1.33164608      -1.48498583       2.05984831      -0.07178810      -0.51544577       0.54245478       1.16811264       0.21584414       0.69968498
C        9.08597950       9.27234725      13.34047387      -0.32706939       0.43735159      -1.03552751      -2.49534371       0.39581161      -1.73237965      -2.08857000       0.61798000      -1.23825000      -1.29964983      -1.14849758      -0.19233394      -2.07591486       0.60327327      -0.91989940      -2.81466794       0.37363130      -1.99320054
C        9.69266716       6.43526628       9.33639081      -0.81809121       0.56927962      -0.33864230      -0.38390504       0.41014454       2.47410628      -0.67860000       0.29139000       1.82877000       0.63083726      -1.82519603       2.79440880      -0.70543671       0.18146789       1.66640973      -0.15712157       0.40484989       3.05858278
C       10.39917790       6.38764585      10.59216703       1.24035347       0.91747952      -0.52510350       0.00318393       1.98540233      -0.90563320       0.22745000       1.73035000      -0.34016000      -0.81746078      -1.33393240      -1.78073335       0.18724802       1.32192135      -0.20406812      -0.52533352       2.07177687      -1.28918719
C       10.32226783       6.90377930       8.07990401      -0.06181175      -0.47485650       0.47076484       1.22138568      -0.66334355       2.16043133       0.66785000      -0.86446000       1.93312000       2.05039930      -0.35552669       0.59927654       0.34838858      -1.01270258       1.86307096       1.47712243      -0.45004642       2.29158211
C       11.68486191       7.34911764       8.16859735      -1.10679710       0.73334075       0.82624324      -2.71236819       0.49807140      -2.48945273      -1.98822000       0.52492000      -2.29877000      -2.05292344      -0.58888698      -1.06706536      -1.72210526       0.47707707      -2.19129229      -2.95453739       0.41401607      -2.10898209
C        9.31220459       7.55052286       7.32110933      -0.02873908       0.78335795      -0.00577501      -2.09640510       2.43867447       0.37040737      -2.15570000       1.69297000       0.52652000       0.76631141       1.69043815      -1.77589464      -2.16646600       1.37775302       0.53161323      -2.02268171       2.75929403       0.35850251
C        9.63061659       8.75318531       6.66967747      -0.17376784      -0.29842515       1.48066593      -0.00315253       1.55203346       0.85285587       0.08946000       1.95741000       0.40966000       0.69936824      -0.79541296       0.24467182       0.10984541       2.19744897       0.05046511       0.08485226       1.29972184       0.89204419
C       11.80944403       6.87987218      10.61328918       0.23777495       0.49462939       0.50782698      -0.69449579      -0.36774741      -2.91365738      -0.77191000      -0.60771000      -2.35381000       2.13266110       0.02475858      -1.94160712      -0.64287841      -0.69448072      -1.99820638      -0.49697888      -0.21594852      -3.16192579
C       12.40165678       7.28909785       9.37182082      -0.23149435       1.11383374       0.50100484       1.21596019       0.94326179       2.53934793       1.31698000       0.85212000       1.92111000       0.05778480      -0.09981132       1.66306949       1.42109394       0.79187125       1.49386728       0.78354377       0.59648448       2.64265919
C       12.03516102       7.68211807      11.73421181       0.59964918      -0.22557921      -0.27942654      -0.46250184       1.43931674       2.75900544      -0.73030000       0.90959000       2.74524000       2.09817481      -0.19653869       0.75137401      -0.91272497       0.50912261       2.60275078      -0.42587793       1.53675127       2.64454889
C       12.86598978       8.82445495      11.74932098      -0.17029070       0.40732242       0.49720341      -1.75792015      -1.36831686       1.91301081      -1.34492000      -0.81687000       2.00599000      -0.32006621      -1.73924541       0.01321912      -1.07747686      -0.46289277       2.14074135      -1.99236536      -1.37362134       1.91957855
C       10.77556010       7.73053270      12.57362305       1.14088655       0.37044729      -0.35135500       0.75666295      -1.03186864      -2.04323532       0.96924000      -1.46326000      -2.11448000      -1.15295482      -0.10412896       1.07063007       1.06479013      -1.54883909      -1.96792579       0.43788528      -0.46287882      -1.96981168
C       10.44893182       8.88145640      13.25039816       0.01212016      -0.44726893      -0.44360693      -0.65605484      -1.89827460       0.09205268      -0.62852000      -1.24919000       0.45561000      -0.57340533      -1.76962435      -0.42824650      -0.66354936      -1.11609948       0.66229653      -0.68068433      -2.29455471      -0.34177193
C       13.31660037       8.46802433       9.40501554      -0.19584992       0.36268373       0.48869040      -1.38518206       0.43975153      -0.21501150      -1.16405000       0.21159000      -0.60787000       0.12893295       0.66018152       0.48261344      -0.89822263       0.15979913      -0.64431846      -1.19597912       0.89259487       0.10105112
C       13.47900178       9.22883295      10.57888325      -0.72347627      -0.01089475      -1.24320734       0.83973515       1.08281730      -1.33067868       0.98209000       1.28017000      -0.94836000       0.42877054      -0.85887563      -1.25862432       1.10914779       1.22705233      -0.86469632       0.82604367       0.44896081      -1.70958853
C       12.03639809       8.60791702       7.40780035      -0.16468066      -0.01563345      -0.33635035      -2.10180005      -2.23532933      -0.03496775      -1.57284000      -2.31603000       0.10231000      -0.89276659      -0.41605771      -0.12561679      -1.42288637      -2.35867882       0.15584952      -2.58788490      -1.76915383      -0.24260306
C       10.98815688       9.26838911       6.69653971       0.41239059       0.12556633       0.10437446       1.74994733      -0.54791153       1.12603452       1.28610000      -0.35237000       0.70844000       2.38097119      -1.92238927       1.24706674       1.16317439      -0.33319613       0.53472805       2.08757448      -0.98947215       1.30368376
C       12.46583721      10.00603704      12.54385640      -1.03599564       0.21935235      -0.32374289       0.21509190       1.37179469      -0.64639016       0.89866000       1.16537000      -0.87989000      -0.85106778       1.68385780       1.45288873       1.14077020       0.94826448      -0.85188693      -0.08157934       1.20797467      -0.57208937
C       11.26400754      10.04685938      13.19459493      -0.93166885      -1.33956218       0.65608694       1.47159281      -1.33705019       0.45264830       0.79148000      -1.29375000       0.80074000       1.30920446       0.19044748       0.11871314       0.56730568      -1.24031329       0.96433342       1.72166252      -1.18362451       0.20621291
H       10.51257215      10.63034760      10.45380916       0.37695740      -0.28075167      -0.00454255       3.16309947       2.54771172       1.19441412       3.35640000       2.78406000       1.22462000      -2.74732685      -3.48776817      -1.66424751       3.57409549       4.11762667       1.24020386       3.02404594       2.82011390       1.99325383
C        9.89506909       9.86687314      10.27916397      -0.90842895       0.84812740      -0.19331641      -5.77971849       1.67168142      -3.13497645      -4.89381000       1.43484000      -2.63681000       2.94951534       0.45415342      -2.96748018      -4.39649963       1.46057510      -2.38575077      -6.19161606       1.56917238      -3.42302847
H       10.01479569       8.88144374      10.36389994      -0.31761399      -0.61620329       0.58642974       1.49475517      -3.78508733       0.87015856       1.54133000      -4.12171000       0.88054000      -0.10402322       4.97399569      -1.49048734       0.79183298      -4.76500368       0.36747605       0.90028691      -3.59638834       1.21813607
O        8.80648794      10.18414208       9.77119752       1.20341058      -0.37891840      -0.43770658       3.88301176      -0.50918344       1.28288904       2.49742000      -0.14242000       0.66079000      -0.45793056       0.74776912       0.63240027       4.81000900      -0.86590374       1.07845140       4.26467466      -1.07836485       2.23309588
64
Lattice="20.0 0.0 0.0 0.0 20.0 0.0 0.0 0.0 20.0" Properties=species:S:1:pos:R:3:momenta:R:3:spice_forces:R:3:castep_forces:R:3:maceoff24_forces:R:3:gomace_forces:R:3:maceoff23_forces:R:3 config_type=fullerene name=fullerene_60 spice_energy=-65369.784779934 castep_energy=-10065.60910273 maceoff24_energy=-65352.68359375 gomace_energy=-10063.9873046875 maceoff23_energy=-65365.65625 pbc="F F F"
C       12.26434201      12.64667150       9.50716295      -0.26145159      -0.51656226      -1.93325994       0.42141761      -0.00963348       1.15415123       0.67114000      -0.08387000       0.83774000       0.49898553       1.52297282       0.89942873       0.80034947      -0.16298032       0.54619205      -0.09659929       0.18888766       1.01722872
C       11.56436216      13.04303757      10.69851510      -0.67879550       0.42683973       1.40203262       1.38144415       0.15048076      -1.33388541       1.23307000       0.32308000      -0.90525000       0.74017024       1.86977005      -1.44463539       1.10545111       0.48068261      -0.67242211       1.36984062      -0.21048588      -1.52881551
C       11.66536171      12.65463476       8.18589544      -0.07906473      -0.63804681       0.45697790      -3.84020215      -0.18606430       0.21393995      -3.14633000      -0.17253000       0.04974000       1.04438591       2.87021399      -0.90777755      -2.62686014       0.10926753      -0.12951589      -3.65191412       0.15922886       0.56769890
C       10.21687302      13.07528384       8.09057363      -0.50593023       0.05811646      -0.06834689       4.66759807      -0.68664836       1.37511387       4.03384000      -0.48205000       1.07236000       0.34377649       2.33924532      -1.77455807       3.57802033      -0.17713010       0.71991253       4.50645733      -0.86652565       1.12840605
C       13.13958098      10.81007561       8.29807574       1.38676055       0.54054541      -0.54051546      -1.34192905      -1.81678836       1.23751227      -1.16950000      -1.07178000       1.10740000       0.82858849      -3.67982697      -0.13125658      -0.95690930      -0.90486073       1.01895010      -1.34880018      -2.14484549       1.13140416
C       13.10988823       9.39005808       8.36707015      -1.50389382      -0.33030511      -0.10669037       1.42936210       1.46626807       0.41481426       1.36827000       0.69456000       0.36472000       0.97490859       2.63017297      -0.17894685       1.28723931       0.36711487       0.12834373       1.33710313       1.69531441       0.03201550
C       13.22971370      11.53988647       9.61081705      -0.50573996      -0.72360509      -1.29311859      -1.03646494      -0.52304064      -0.48479230      -0.87314000      -0.18082000      -0.95401000       1.02033997      -0.81371880       1.04768014      -0.55179542       0.03892288      -1.13353562      -1.01034927      -0.73881018      -0.23274502
C       13.38920924      10.85558080      10.84843991      -1.31559046      -0.98050243      -0.64596963      -0.67404546      -1.03763794      -1.03096651      -0.49166000      -1.19409000      -0.45413000       0.48085117       0.84531301      -1.44287908      -0.33649647      -1.14538229      -0.17936498      -0.60100567      -0.70843589      -1.17180252
C       12.04113780      11.40781633       7.47716931      -0.17514876       0.38593765       0.36868491       4.05012865       2.61913236       3.30455066       4.26098000       2.93705000       3.41341000       1.40530062      -0.44136041      -1.13705993       4.34512424       2.88418722       3.31138706       3.58974314       1.84633946       3.13297343
C       11.23534000      10.61326086       6.81362466       0.07399293       1.50042001       0.09235000      -3.53838507       0.01186813      -2.97443340      -3.72296000      -0.51261000      -3.21090000       1.44655561       1.16127515      -1.45353746      -3.70232964      -0.63102794      -3.23004293      -2.97822809       0.40360436      -2.67189741
C       10.22346089      13.48782129      10.59702126       0.59807884       0.79658881       0.09302142      -1.48696826       0.45591448      -2.99547628      -1.31949000       0.56068000      -2.42198000      -0.36604047       1.50000119      -1.31624079      -1.20095420       0.68486261      -2.16947651      -1.78600919       0.16919661      -3.31136703
C        9.54588614      13.47684890       9.28044567      -0.15484419      -0.43047740       0.76230628       0.40436875       0.08927253       3.31138594       0.08550000       0.20083000       2.79485000       0.21194446       2.54534745       0.87087971      -0.18248129       0.41641408       2.58672237       0.53524053      -0.10490322       3.68370676
C        9.51456153      13.10977976      11.78017182      -1.30497759       1.23204647      -1.56658736      -0.51737204      -1.55908361       0.58402474      -0.05332000      -1.15605000       0.59077000      -1.88879788       0.79692507       0.88298035      -0.05807441      -0.95175362       0.77416545      -0.74406493      -1.83997917       0.28524035
C        8.21739296      12.58360336      11.66931396       1.60512642       0.91938456      -0.19809168       1.44324982       1.67822675       0.53179819       0.76508000       1.45366000       0.47470000       0.82704186       2.82886314       2.43398380       0.64755219       1.42416275       0.59412587       1.98121154       1.30392730       0.59154129
C       11.76907096      12.42173436      12.00305545      -1.45685109       0.38011289       1.06549465       0.91510581      -2.86156816      -1.20273537       0.56449000      -2.20586000      -1.02195000       2.12876511      -1.86751842       0.25858402       0.54325557      -1.86739492      -0.83293474       1.02799523      -2.88996172      -1.38838422
C       12.61740655      11.22672687      12.00450099       0.40266055      -0.01871213      -0.20621731      -1.53062603       3.35519382       1.70213451      -1.04793000       2.64321000       1.66234000       0.55079341       3.37405753       1.47874248      -0.83303738       2.34911323       1.66916645      -1.63527286       3.46627092       1.77364290
C       10.44005315      12.35737983      12.64251038       0.84222877      -0.94802458      -0.24871577       1.34228358       1.32303480      -0.58489865       1.50057000       1.75636000      -0.78564000      -0.12317532      -1.01339471       2.96189880       1.50606465       1.93117285      -0.70696408       1.31700706       0.59164602      -0.72153312