67
Properties=species:S:1:pos:R:3:castep_forces:R:3:spice_forces:R:3:maceoff24_forces:R:3:gomace_forces:R:3:maceoff23_forces:R:3 castep_energy=-10251.18784136 spice_energy=-66435.83545094998 maceoff24_energy=-66407.375 gomace_energy=-10247.783203125 maceoff23_energy=-66430.921875 pbc="F F F"
H        9.61166000      11.63670000       9.60738000       1.72273000      -2.46626000       1.85678000       2.05578399      -2.95831033       2.16068223       2.88547611       5.36100531      -2.92765260       1.19923091      -0.70620263       1.33869290       0.98032928      -2.69688511       2.23722219
H       10.37272000       8.45826000       9.78632000      -3.44752000       3.15079000      -0.49256000      -3.44175672       3.27076573      -0.52425974      -0.05139184      -1.67324543       0.20852667      -1.09443438       1.24901867      -0.63292360      -5.41200352       2.18040180      -0.10715903
H        9.00142000       9.16432000      10.78826000      -1.33399000       0.01809000       0.15470000      -1.24749741       0.14319216      -0.21287852       6.08458185       2.03659821     -15.99026203      -1.14737606      -0.41706014       0.98135483      -2.50659442      -1.95695114       2.46615672
H        8.85410000       9.78050000       8.88904000      -0.24824000      -1.55645000       1.19219000      -0.07550018      -1.77985427       1.58640442      -0.60850334      -4.40540123       5.36493397       0.39495659      -1.03945541       1.91052008      -1.78388762      -2.85384488      -0.36288536
C       12.44402000      12.72508000       9.42486000       0.48697000      -0.93457000      -1.50645000       0.18596555      -0.92960204      -0.86388130      -0.56551385       3.74410582       3.38272429       0.50979400      -0.71960813      -1.37724006       0.06074721      -0.70312762      -0.42416298
C       11.86348000      13.10668000      10.60202000      -2.08076000       0.89473000       0.92887000      -1.93092306       0.63668452       0.31621520       2.12174582       0.01135850      -2.13407969      -1.97501922       1.00196123       1.05054069      -1.63734603       0.35600954      -0.03031606
C       11.60580000      12.72038000       8.19150000       0.67967000      -2.16845000      -0.66331000      -0.06510565      -2.27717164      -0.68996216      -2.64269018       3.67080736      -1.43830657       0.75538170      -2.04568458      -0.87363088      -0.18781453      -2.16290140      -1.21794295
C       10.25318000      13.02690000       8.19594000      -0.29030000       1.48040000       0.48161000       0.41867173       1.35619590       0.48952427       0.13704777       0.75753117       0.44168806      -0.01208332       1.61924338       0.36350155       1.19961381       1.90787768       0.51058221
C       13.03800000      10.79476000       8.14174000      -0.53366000      -1.62695000       0.70317000      -0.71083568      -2.36666571       0.80912874       4.71129227      -1.83549404      -3.93730235      -0.22088057      -1.50023794       0.41616118      -0.22440326      -1.76198983       0.22956288
C       13.05794000       9.32412000       8.15778000      -1.48740000       0.54518000       0.28531000      -1.75093585       1.22918590       0.31950496       2.47358513       0.14720190      -2.78877044      -1.20798492       0.38930538       0.14301914      -0.75015771       1.10104752       0.31324112
C       13.32002000      11.52560000       9.41340000       0.24790000      -0.56714000      -0.52651000       0.39186628      -0.88787090       0.04319097       8.25983047       3.12968230       0.24521291       0.49972385      -0.31501549      -0.83777815       1.84676409      -0.56584811      -0.16933125
C       13.57720000      10.76480000      10.60332000      -0.09146000      -0.24020000       0.07420000      -0.30816742       0.09682188      -0.51699155       8.62352371       4.46306992      -0.36913490       0.56063235      -0.11370213       0.43014109       1.13797927       0.84543699       0.03181181
C       11.93960000      11.47270000       7.42394000       0.50468000      -0.36794000       0.56401000       0.10794088      -0.73911722       0.44648925       1.52964449      -0.04865289      -4.36010551       0.54795414      -0.27393997       0.46047717       0.38140911      -0.58258665       0.77999341
C       10.94490000      10.69136000       6.73710000       0.48039000       0.76628000       0.89910000       0.84581365       1.03339842       1.33764073       1.16986227       1.06333470      -3.06169033       0.83671844       0.79067451       0.54787856       0.27723932       0.69340456       0.95904124
C       10.41410000      13.57750000      10.59514000      -0.46581000      -0.21025000      -0.57622000      -0.89197791      -0.33344331      -1.10137608      -2.61789513       2.56028509      -1.33356476      -0.16865644       0.10107303      -0.36663139      -1.07320166       0.25964177      -0.90070194
C        9.62892000      13.59176000       9.39346000       0.21995000      -0.39238000       0.44094000       0.48446638      -0.48853454       1.06440067       0.82203746       0.73826790       0.41430175       0.05856934      -0.68931264       0.40444326       0.90891767       0.67286539       1.15674937
C        9.74776000      13.12858000      11.80736000       0.52602000      -1.38954000       0.08560000       0.00785219      -1.75603614      -0.07447958      -3.53585768       2.14278603       0.25880408       0.53091598      -1.45525670       0.14705092       0.21966547      -1.35971296       0.12125409
C        8.40536000      12.60648000      11.76122000       0.21906000       0.17794000       0.33013000       0.86549852       0.44811846       0.19250122       1.79602432       3.87493443       1.56730509       0.25513330       0.09557277       0.48775643       0.47347349       0.38345265      -0.12375981
C       12.06524000      12.36008000      11.82606000       0.58644000      -0.57745000       0.62683000       0.90035608      -1.14208539       0.70355086       1.99285102       0.19783783       1.49412632       0.47517633      -0.24771109       0.67958456       1.10015917      -1.28887439       0.63184226
C       12.98128000      11.24020000      11.90510000      -0.62933000      -0.80314000      -1.72489000      -1.17201312      -0.52909401      -1.91143789       1.67793798       2.80016065       2.99030757      -0.30890632      -0.60101032      -1.47409952      -0.55393946      -0.17008036      -1.67236829
C       10.81890000      12.36798000      12.56850000      -1.91116000      -0.41337000       0.36550000      -2.13585583      -1.03992526       0.64608336       0.67252696       0.05500007       4.62397289      -1.69417500      -0.13742313       0.34268284      -2.21233964      -0.50347877       0.65130126
C       10.39476000      11.24090000      13.32894000       0.47659000      -1.38464000      -0.74656000       0.80024196      -1.03526583      -1.24682913       3.09112954       3.16306472       1.85308647       0.33472806      -1.50295055      -0.48024887       1.41994727      -1.36006951      -0.40372586
C        8.22360000      13.11034000       9.37538000       0.19209000       0.05319000      -0.08720000       0.01439977      -0.20116841       0.55481044      -1.54363370      -0.06394815       1.91419184       0.42488348      -0.06420243       0.23770091      -1.09081531      -0.39759207       1.00124383
C        7.59718000      12.65010000      10.51032000       0.30282000      -1.53024000       3.41881000       0.74353324      -1.46113984       3.13376098       0.69002557       4.44761276       0.85175490       0.05984658      -1.27694702       3.32521963       0.95483053      -1.35653567       2.45595837
C        8.00168000      12.28518000       8.20474000       0.18894000       0.13636000      -0.12415000      -0.01819472      -0.43828717      -0.16501693      -1.11582685      -1.17560935      -2.08740377       0.01901412      -0.00705448      -0.34145051      -0.14630446      -1.26484776      -0.30644000
C        7.22072000      11.12338000       8.23664000      -2.00274000       0.44096000      -0.03944000      -1.71200158       0.94695449      -0.11634104      -2.83926725       4.89586067      -2.00186539      -2.03878951       0.61825514      -0.08142126      -1.07384372       0.64292109      -0.01000673
C        9.24822000      12.25524000       7.51054000       0.14505000      -0.17646000      -1.60142000       0.23168189      -0.73828046      -1.99084635       0.14319494      -0.78417039      -1.52486753       0.02507274      -0.28234407      -1.79774976      -1.25636244      -1.81603193      -2.93302393
C        9.56892000      11.12264000       6.75400000       0.07500000       0.50652000       0.38827000      -0.08331176       0.98118916       0.84780108      -2.55668879       3.33949232      -1.25976276      -0.08931959       0.50632358       0.17608029      -0.54530084       1.33550954       1.56103206
C        6.74708000      11.39734000      10.60310000       0.65494000       0.87220000      -0.68451000       0.65720650       0.48224425      -1.38667509      -4.77889442      -2.19976807      -1.93531418       0.14926791       0.99708641      -0.41432986       0.49988979      -0.58759892      -1.87456441
C        6.49876000      10.68866000       9.44836000       0.57792000       0.20661000      -2.04479000       0.83713319       0.53573751      -1.49759460      -1.47420788       0.70047569       0.79276305       0.41308343       0.35101604      -2.03288317       0.79893231       0.81471848      -0.56188488
C        7.02468000      10.63506000      11.78082000       0.61399000       0.86517000       1.56052000       0.77732407       0.30141776       1.66611336      -2.88701487      -1.77765048       2.66030049       0.59297729       1.17522812       1.40339196       0.53951299      -0.93139672       1.12101793
C        7.03382000       9.22978000      11.80726000      -0.95440000      -0.05590000      -0.98223000      -1.00428540       0.54364691      -1.11146293      -3.56445146       1.64560413      -0.89130402      -1.12841952      -0.20152962      -1.06942236      -1.14055312       2.24521303      -0.60510397
C        7.99184000      11.41126000      12.58312000       0.68131000       0.26928000      -0.82020000       1.19596000      -0.22350963      -0.54204661       0.09886312      -0.58679366       3.38238978       0.60753363       0.43228453      -0.64804393       1.31732774      -0.89127886      -0.00073349
C        8.94370000      10.72546000      13.36250000       0.74575000       0.82031000      -1.12442000       0.29567762       1.14045501      -1.69452676      -4.47480488       1.62496090       0.39950037       0.79662049       0.89354157      -0.81277406      -0.23504812       1.19978666      -2.09847140
C        6.43882000       9.25336000       9.36484000       0.87953000      -1.84333000      -0.66522000       1.20460189      -2.33434845      -0.20113093      -0.73078752      -3.32655191       3.06770539       0.49333560      -1.96944785      -0.85195845       0.65968418      -4.24056768       1.17464280
C        6.81698000       8.53010000      10.49494000      -2.38121000       1.59915000       2.64369000      -2.67218970       2.00837662       2.36974484      -3.09299350      -2.00304794      -0.12697312      -2.66364408       1.57917809       2.96062851      -4.03470993       1.51982272      -0.29535758
C        7.00232000       8.71646000       8.05376000       0.24207000       1.42187000       1.63193000       0.73640200       1.02027407       1.93629452      -0.82587123      -2.30576253       0.27733612      -0.34229782       1.36207151       1.33134925       1.74045014      -1.26008666       2.33746314
C        7.83888000       7.55844000       8.09010000       1.18052000       0.89980000       0.94667000       0.90384104       1.55108129       1.07732708      -2.95176554      -0.67431712       1.78923297       0.86311811       0.46158698       0.63137197      -1.53716898       2.92232227       1.06774497
C        7.45500000       9.96940000       7.40070000       0.39253000      -0.54266000       0.06511000       1.09555143      -0.45172224      -0.22447813       2.45035410       0.20460995      -1.59653425      -0.14886922      -0.55618203      -0.40292209       2.28929663       0.21787789      -0.62732565
C        8.69164000       9.97532000       6.78088000       1.02710000      -0.93306000      -1.38661000       0.47359722      -0.91207264      -1.12761055      -2.50212550       0.33575124      -2.98445272       0.97651649      -0.71077526      -2.11433935      -0.30156118      -1.71133769      -0.64972687
C        7.52262000       7.33308000      10.57042000       0.91479000      -1.40641000       0.62071000       1.31137082      -1.60856404       0.04555010       0.43003678       0.66959238      -3.90734529       0.69008601      -1.63796985       0.67307627       0.27333045      -2.26354671      -2.57823181
C        8.13508000       6.93696000       9.40784000       1.62287000      -1.58227000      -2.39684000       1.45276487      -1.40136377      -1.97176213      -2.81828213      -2.16013765       1.22552598       1.44290698      -2.01214767      -2.54355049      -0.68775320       0.00303149      -0.62764657
C        8.23540000       7.21142000      11.85898000       1.92812000       1.62115000       0.14588000       2.63002221       1.80417578       0.09036433      -0.06966984      -2.97880340       1.62007797       1.67714167       1.24887514       0.40019286       3.42001724       1.38070464       0.67201030
C        9.64846000       6.88140000      11.79212000       0.14975000       1.12521000       1.25783000      -0.27913110       1.53539024       1.40680092       0.12660858      -4.55481577       0.34181380       0.22067250       0.84493327       1.22056460      -0.78166687       0.77041316       1.35484040
C        7.91140000       8.43736000      12.65384000       0.85955000       1.18548000      -0.83962000       1.38606667       1.51995993      -0.82208499      -3.71305251      -0.37626791       3.35675287       0.49981439       0.81879503      -0.36545038       0.85260582       2.01378512      -0.71687180
C        8.92784000       9.25550000      13.32750000      -0.76859000      -0.10611000      -0.78373000      -1.06556443      -0.35648732      -1.18929845       1.17923498      -2.43332338       2.49474335      -0.60346842       0.04323331      -0.42991340      -0.61796552      -0.91021931      -1.75475729
C        9.58340000       6.46360000       9.36994000      -0.57041000       0.31953000       1.71092000      -0.25785519       0.48053468       2.35449497       1.22383559      -2.23229504       0.43124861      -0.81818837       0.21729511       1.63620639       1.63011348      -0.86436582       2.83855104
C       10.32928000       6.51668000      10.61290000       0.49469000      -1.30720000      -2.93227000       0.32734260      -1.45957032      -3.74217373      -2.16891265      -2.98109913      -1.50515032       0.59666324      -1.65849602      -2.32739258      -1.49653316      -1.72577000      -4.34126043
C       10.21042000       6.95576000       8.17700000       0.04195000      -0.69324000       0.30409000       0.44936667      -0.50117521       0.38276496       0.45374990      -3.48638105       1.39334297       0.15040839      -0.77726471       0.03481472       0.25975955      -1.43623102       0.48315394
C       11.57310000       7.41902000       8.25230000      -0.92562000      -1.20854000      -0.38577000      -1.42262304      -1.34678365      -0.39816892      -0.66600728      -1.19127083      -3.31928301      -0.59610474      -1.22213674      -0.85419422      -1.73635173      -0.67859995      -0.84950548
C        9.16618000       7.59494000       7.38574000      -0.10648000       0.16106000       0.69952000       0.19594093       0.81004255       0.56129575       1.95218599       0.47291756      -3.55043602      -0.12196640      -0.08081222       0.43859285       0.77644163       1.53210199      -0.23982167
C        9.56264000       8.76546000       6.77212000      -1.22895000       1.35929000      -0.67097000      -1.38910878       0.87947031      -0.34343727      -0.24850506      -4.72944212      -2.43990993      -1.04406714       1.34302437      -0.81689382      -2.32130527       0.67581427      -0.07231867
C       11.79494000       6.88278000      10.60636000      -0.83201000       1.36804000       0.65432000      -0.77347186       1.70620410       0.18076286       2.00650883      -2.10523891      -1.19629288      -0.41072419       0.81797636       0.82122493      -0.39941013       1.53632152      -0.31552666
C       12.43624000       7.32462000       9.39650000      -0.96626000       0.36149000       1.38965000      -1.39809059       0.31518866       1.96041818      -1.18465304      -4.19645977       1.04137874      -0.53315520       0.03988111       1.34823680      -1.79838693      -0.66687042       2.25840759
C       11.98720000       7.68050000      11.88098000       0.01503000      -0.74975000      -2.31021000       0.43661422      -0.17520720      -2.61090159       3.26896906      -0.76646090       1.23193121      -0.01161474      -0.81348544      -2.20560336       0.52644783      -0.99979711      -2.37691164
C       12.86626000       8.79524000      11.80218000      -0.71526000       0.46716000       0.83138000      -1.27297414      -0.04864010       0.85392958       0.89239359      -4.48115349       0.83489633      -0.58241987       0.71415460       0.90043592      -0.64834249       0.54909253       0.97651368
C       10.67374000       7.66802000      12.52090000      -0.67738000       1.56792000       1.03225000      -1.09000256       2.19621215       1.31721921      -0.47706595       1.64356744       3.74806499      -0.50551724       1.59300995       1.05359268      -1.23627329       2.92548084       1.76934791
C       10.26676000       8.88076000      13.15860000       3.66367000      -1.12818000       0.95227000       3.97702319      -1.70176140       0.70570601       0.85797119      -4.80365467       3.91975641       3.49507380      -0.93721890       0.84721279       2.91527057      -2.43041754       0.44049504
C       13.31670000       8.53782000       9.37598000      -0.49078000      -0.35113000      -0.44590000      -0.51204224       0.00403714       0.28734464       5.47104454      -0.99384999       1.89980829      -0.49992502      -0.28081518      -0.55447727       0.55102420       0.29943457       0.02381529
C       13.50810000       9.21234000      10.55632000       0.46567000       2.43142000       1.47509000       0.34332342       2.25107699       0.89429309       2.37240601      -5.18690205      -0.25420058       0.77903086       2.08615541       1.74714422       0.18117809       1.82979953       1.16097927
C       11.91780000       8.58566000       7.56324000       0.23217000       2.01624000      -2.29237000      -0.19285080       2.40032057      -2.65344263       0.12792516      -3.21037412      -3.22623348       0.24703060       1.81141734      -2.06718636      -1.95768046       1.79177976      -2.23876595
C       10.89442000       9.24990000       6.82272000       2.50086000      -0.13061000       0.20475000       3.00270255      -0.39571322       0.59394448       1.85568905      -2.30745697      -2.35997677       2.34140778      -0.01844186      -0.02142555       3.26710415      -0.39327496       1.26577282
C       12.55684000      10.01260000      12.59942000      -1.77701000       0.17982000      -0.00091000      -2.47459814       0.32313593       0.16967399      -1.13283777       0.80890071       4.46309948      -1.66677189      -0.09733491       0.09339643      -2.09976864       0.06463253       0.18156242
C       11.28938000      10.04056000      13.27562000      -2.04904000      -0.44688000      -0.63549000      -1.74391856      -0.39444418      -1.06310149       1.92251730      -0.34889841       2.31164312      -1.91246057      -0.47305721      -0.42428744      -1.36866426       0.49387202      -0.56321311
C       10.21632000      10.61290000      10.00018000      -9.31152000       0.97021000      -2.75187000      -8.14614631       1.03388662      -2.94933104     -54.16362762      12.37452793      -6.05079985     -10.48707676       1.73597229      -2.92692900     -14.61462212      -0.55547047      -3.40232182
C        9.35536000       9.40474000       9.81464000       4.89936000      -0.62985000       0.05237000       4.83454897      -0.38946252       0.21150842      -4.71159840      11.23290062       6.86175156       2.24644589       1.11594677      -0.27358794      17.86530685      12.29738045      -0.33494198
O       11.34016000      10.47970000      10.06318000       6.43885000      -0.33829000       1.26764000       4.65560337      -0.18426935       1.21918230      41.14179230      -5.92909765       5.40297508       7.26744938      -1.21185648       1.43650007       8.14331341      -2.11376548       1.55377531
67
Properties=species:S:1:pos:R:3:castep_forces:R:3:spice_forces:R:3:maceoff24_forces:R:3:gomace_forces:R:3:maceoff23_forces:R:3 castep_energy=-10249.76478249 spice_energy=-66433.76729820772 maceoff24_energy=-66413.828125 gomace_energy=-10247.4833984375 maceoff23_energy=-66428.4765625 pbc="F F F"
H       10.53590000      11.01744000      11.36954000      -1.19424000      -2.35356000      -1.26196000      -1.31261605      -2.95945040      -1.63514965      -3.40487814      -8.22409344      -3.92265701      -0.33515948       0.85625339       1.58475733      -2.27326775      -3.07268071      -2.00217628
H        8.44980000      10.63454000      10.63102000      -1.28093000      -1.03906000      -0.89579000      -1.08578256      -1.38765944      -1.19377248       2.04306602      -6.51034069      -5.52620459       0.45729780      -0.54711354      -1.18211341      -3.85583615       0.41506517       0.49928790
H        9.22878000      10.70398000       8.80848000      -0.64412000      -2.33110000       3.69314000      -0.50679806      -2.31782889       3.68221723      -0.15440893      -4.49740028       5.13413572      -0.78172028      -1.40202785       1.78373361      -1.96378446      -2.49088597       4.05553627
H        8.85416000       8.93308000       9.64650000      -0.43605000       0.36760000       0.32811000      -0.37811520       0.73039572       0.51866397       1.28668666       7.82847500       2.87851572      -0.09050241       0.35387504      -0.17452246      -2.02913332      -2.59009552      -0.89156139
C       12.38924000      12.51342000       9.53068000      -0.83649000       0.28649000      -2.47267000      -1.25845015       0.46691976      -2.00667319      -0.66181135       3.38742399      -0.14466095      -0.70234907       0.23379904      -2.62511110      -1.33950293       0.49723285      -1.97550976
C       11.76168000      13.05426000      10.64410000       0.52440000      -2.35605000       2.85737000       0.84753960      -2.92776197       2.46149070       2.55011606       0.15739632      -0.12095684       0.51691091      -2.10637522       2.87363720       1.41993034      -2.88448858       2.25896311
C       11.58410000      12.52764000       8.28532000       0.29558000       0.24647000      -0.79167000      -0.27353377       0.35387336      -0.91277223      -2.14702725       2.98346615      -2.20386028       0.35419685       0.19702208      -0.61837000      -0.24127132       0.31078315      -0.80934489
C       10.23566000      13.04868000       8.27158000       1.86734000      -0.41600000       0.42633000       2.47787495      -0.73905683       0.43272327       3.87396049      -0.58921957      -2.18519139       1.82536685      -0.50357485       0.36478004       1.99519539      -0.82373327       0.39877191
C       13.21280000      10.74456000       8.07494000      -2.14853000       1.60556000       1.74593000      -2.43679311       0.89947619       1.95532870       1.86202955      -2.12915039      -2.28763962      -1.82887220       1.84095657       1.51572645      -2.13915825       0.44040686       1.67682362
C       13.15110000       9.37326000       8.14762000      -0.49966000      -2.89228000       0.45913000      -0.59165389      -2.25130788       0.50400399       0.50444841       0.91087365      -1.53450632      -0.40102392      -3.23563385       0.38048214      -0.05788994      -1.67545414       0.04899144
C       13.32622000      11.39854000       9.44882000      -0.00705000       0.22230000       0.49673000       0.07859833      -0.14377453       1.15574552       1.91819000       0.29390061       3.31399870       0.02826905       0.43632203       0.28219068       0.57963455       0.10397765       1.66941977
C       13.61074000      10.70010000      10.66732000      -0.75307000      -1.35470000      -0.30387000      -1.04265262      -1.11122037      -0.84834992       0.61698246       1.18364215      -1.70710051      -0.46082687      -1.11840749      -0.06978039      -0.69360101      -0.71426290      -1.25933909
C       12.07628000      11.46256000       7.34558000      -0.88523000       0.33027000       1.82720000      -1.46293434       0.04587392       1.81060558      -2.57526827       0.75671279      -2.24613357      -0.72805929       0.34575599       1.76762927      -1.76188350       0.53468049       1.64887619
C       11.02786000      10.78320000       6.63224000       2.34060000      -0.22714000       1.10926000       2.79304118       0.11599787       1.54032351       3.05366993       1.46311617       0.09162045       2.32606125      -0.23609442       1.14651728       3.25308323      -0.17199492       1.45194924
C       10.35292000      13.43552000      10.70290000       0.45985000      -0.78694000       1.55095000      -0.03733092      -0.93984706       0.98390281      -1.71189308       1.65812206      -2.51924634       0.31751513      -0.59827840       1.65828848      -0.71484631      -1.05336344       1.17664933
C        9.62938000      13.47432000       9.56806000      -0.90616000      -0.04641000      -3.10470000      -0.51873049      -0.15629214      -2.64083095       0.14033151       2.25489378       1.72029948      -0.83032119       0.20837897      -3.03309035      -0.80991995      -0.71955818      -2.50961208
C        9.70162000      12.83882000      11.91950000       0.27411000       3.22831000      -1.08751000      -0.40048968       3.34357458      -1.19908995      -1.31445301       1.00124383       1.23152471       0.54627299       2.92086840      -1.38943374      -0.92797577       2.98877621      -1.97351313
C        8.34904000      12.56010000      11.96046000      -2.68694000      -1.16024000      -1.54712000      -2.15040309      -1.20294808      -1.76065738       0.84775013       4.28983688      -0.10083532      -2.37387490      -0.74305069      -1.32751858      -1.70746899      -1.66426778      -2.12746859
C       12.01108000      12.24424000      11.88920000       0.05494000      -0.20292000       0.88831000       0.24112717      -0.65788123       0.99829065       0.76687908      -1.42788517       2.19524980      -0.03305811      -0.20548475       0.70255131       0.97854614      -1.28008080       1.09412301
C       12.90244000      11.03732000      11.93812000      -1.02041000       3.89878000      -1.55275000      -1.43763657       4.51185230      -1.70253858      -1.33416975       2.45465708       0.56497180      -0.78807485       3.77635407      -1.66423607      -1.54996729       5.31383991      -1.90954375
C       10.72380000      12.31494000      12.71602000       2.25556000      -3.48755000       1.20225000       2.39433542      -4.21858390       1.57080947       0.75783205      -0.14578319       2.74678135       2.15328360      -3.59593248       0.56314939       1.67820144      -3.90959406       2.89709282
C       10.39202000      11.13104000      13.51228000      -0.79760000       1.36322000      -1.68091000      -0.65143008       1.88069390      -2.33569152       2.48312664       2.73436856      -1.49616528      -1.06634009       1.26583636      -1.28387380      -0.88505626       2.76019406      -3.04010797
C        8.22298000      13.15534000       9.49588000      -1.23259000      -2.17153000       0.23037000      -1.59267547      -2.70001027       0.70374639      -2.47351217       0.56769419       1.34848082      -1.13761020      -2.03705835       0.10629373      -2.06518435      -3.52492666       0.95193452
C        7.51918000      12.68000000      10.68194000       1.94584000       0.37555000      -0.17616000       2.45629930       0.52114115      -0.70782166      -0.75912046       3.23748326      -1.95920491       1.61399233       0.43978408      -0.26801530       3.23933053       0.48303151      -1.69613564
C        8.00518000      12.41192000       8.20018000      -0.91866000      -0.13930000       0.22549000      -1.40950986      -0.56564152       0.27021189      -3.68064213      -2.01252985      -1.15970898      -1.06488967       0.06641336       0.21147358      -2.86804152      -0.88897443       1.15897465
C        7.07424000      11.30924000       8.15184000       0.74541000       0.60102000      -0.36091000       1.25484917       1.07639269      -0.31298267       1.29744601       3.82559443      -0.14336729       0.60939085       0.58941352      -0.56713164       2.50052500       2.67028475       0.25662971
C        9.25954000      12.44716000       7.39158000      -0.07257000      -1.35383000       0.91752000       0.16724440      -1.98034529       0.83460727       0.93608767      -0.63657308      -1.32780027      -0.02912027      -0.77573979       0.51286346       0.42283401      -2.07687426       1.05727518
C        9.67266000      11.28548000       6.61798000      -0.84944000       0.69311000       0.97535000      -0.93399396       1.17768882       1.42276816      -1.64504886       0.79380035       0.27373075      -0.89685571       0.59746552       0.46552643      -1.40909338       1.15707242       1.01673901