65
Lattice="20.0 0.0 0.0 0.0 20.0 0.0 0.0 0.0 20.0" Properties=species:S:1:pos:R:3:momenta:R:3:spice_forces:R:3:castep_forces:R:3:maceoff24_forces:R:3:gomace_forces:R:3:maceoff23_forces:R:3 config_type=fullerene name=fullerene_60 spice_energy=-63352.49632315136 castep_energy=-9658.963473928 maceoff24_energy=-63333.84375 gomace_energy=-9657.671875 maceoff23_energy=-63347.6875 pbc="F F F"
C       12.32935669      12.62391829       9.38639900      -0.78694514      -0.26991312       0.20736647      -0.30578970      -0.06974561       2.37117449      -0.01502000      -0.15003000       1.70121000      -0.78786635       2.61184359       3.54957867       0.07908660      -0.11336768       1.59499729      -0.23953786       0.03811204       2.98827124
C       11.75575503      13.05147315      10.63713833       0.20358856      -0.50474217       0.94123058      -0.97990528       0.07276207      -2.90354281      -1.04516000       0.29408000      -2.22544000       2.43381453       0.72091389      -2.97166061      -1.03557861       0.44904476      -2.14579248      -0.91726196      -0.32046503      -3.45369434
C       11.53667130      12.54787017       8.18628074       0.67179629      -0.61087296      -0.34633237       0.31159726      -0.08860682      -1.11604934       0.82709000      -0.15842000      -0.99754000      -1.02156603       2.72032213      -1.92504120       0.90892577      -0.14595824      -1.04519975      -0.36650932      -0.29425132      -1.08230066
C       10.22052172      13.04319448       8.09577849       0.67405365       0.22650173      -0.10492255       1.30751912       0.69954591       2.27655088       0.76224000       0.92841000       2.05423000       3.44451022      -0.07644176       0.14708686       0.62313926       0.92104912       2.02072930       1.74437916       0.58221036       2.40350890
C       12.97850737      10.68893051       8.23204961      -0.17284034      -0.54154187       0.03657066       0.10670676       1.28417537      -1.27656781       0.10454000       1.89515000      -1.27427000       0.98355508      -2.92948008      -3.03822660       0.09337324       2.06904507      -1.34264421      -0.07783473       0.75779760      -1.50348461
C       12.98605209       9.33477722       8.13033922       0.26186336      -0.25323878       0.85306685      -0.96900124      -2.69547297      -0.14579310      -0.84494000      -3.15270000      -0.21440000       2.41146350       1.86006832       2.15838909      -0.78799206      -3.26155901      -0.25426528      -1.08646703      -2.14445496       0.10390258
C       13.28183359      11.49882849       9.43481537       0.45515948       0.28529069       0.42288216      -1.74145646      -1.34473421      -0.32446278      -1.58078000      -0.91935000      -0.77159000       1.94073486      -1.54177141       1.86993992      -1.25073838      -0.80512834      -0.71033061      -1.79551160      -1.40805721       0.19532266
C       13.44038837      10.77188286      10.62775521       0.13554955      -0.13685810       0.58818765      -0.27813919      -1.17460214      -1.13374352      -0.06684000      -1.32311000      -0.54033000       0.71613407       0.97994864      -2.18497920       0.11244011      -1.21539485      -0.45759252      -0.14563650      -1.20714724      -1.65825057
C       11.98946249      11.35346508       7.40556694       0.28102278       0.33873870       0.16541963      -1.80561628       1.82956349       0.54509806      -1.16926000       1.92819000       0.76299000      -1.64565086       0.61256480      -2.90505481      -0.98875904       2.00435948       0.83254945      -2.40636539       1.56366539       0.46079999
C       10.98262480      10.70785518       6.64878818      -0.60208144      -0.42305505      -0.08977380       2.36207719       1.02063112       0.79936626       1.81713000       0.63545000       0.36064000       3.70086884       3.35777330       0.41915846       1.76862407       0.42015857       0.10083073       2.82453609       0.96414232       0.97615927
C       10.33691172      13.58282503      10.62275001      -0.85709349      -1.05654407      -0.84652419       1.00638270      -1.22363543      -2.43742928       1.16152000      -1.03314000      -1.79587000      -0.58093441       2.34352112      -3.08173656       1.24894142      -0.79425788      -1.73861575       0.73416138      -1.07456350      -2.83136964
C        9.59831542      13.55078854       9.33510263       0.55635275      -0.64695576       1.70629023       0.24441177      -1.04092034       2.69778696      -0.05987000      -0.87300000       2.09430000       1.62692261       3.28566742       3.60350084      -0.23665111      -0.71109414       2.08890557       0.73896956      -0.95866030       3.21839786
C        9.77075664      13.14812874      11.88766950      -0.14625788      -0.14121192       1.41378998      -1.45382015      -1.48500629      -0.57681944      -0.77569000      -1.08690000      -0.50912000      -4.24911165       2.28914428       0.75018167      -0.65987676      -0.83812535      -0.21746176      -1.85231364      -1.50624657      -0.60543990
C        8.43045279      12.68460714      11.82220095       0.47803685       0.74094043       0.54766372       0.93457456      -1.05858184       1.12832028       0.24770000      -1.13882000       1.09572000       2.03819227       1.58698726       3.10088015       0.02082276      -1.13271332       1.20247114       1.61470914      -0.97950721       1.22481501
C       11.94995319      12.23480419      11.81379178      -0.64623586       0.39884753      -0.97240202      -0.69822678       2.35094780       0.27202286      -1.03860000       2.80121000       0.30786000       2.08677793      -0.65686226       1.03981113      -1.15852726       2.77670383       0.28202212      -0.33532786       1.77394938       0.13245597
C       12.70912234      11.12986073      11.80163917      -0.04775951      -0.14677102      -0.44994050       1.68325124      -0.52360818       1.30968350       2.04569000      -1.06713000       1.21947000       0.72542405       3.09339428       1.40334082       2.11434746      -1.23092175       1.15406859       1.00320494      -0.20406109       1.33616924
C       10.77682593      12.32998627      12.63871664      -0.37272099      -0.32111538      -1.08595150      -1.12750247      -0.09565223      -0.08873959      -0.86190000       0.45306000      -0.34679000       0.42415726      -1.81207120       3.56734037      -0.91814041       0.51157737      -0.18103701      -1.39060307      -0.70406145       0.21334755
C       10.42497654      11.21547036      13.40887136      -0.47668079       0.07602246      -0.09424573      -0.15405321      -1.34185775      -0.73305134      -0.27182000      -1.69632000      -0.25398000       0.54552239       2.01797867      -0.04450846      -0.10329324      -1.59902370      -0.11345011      -0.07481438      -0.70884240      -1.04710913
C        8.17362173      13.01527185       9.37136185      -0.59252304      -0.10867667      -0.07075185       2.47568694       2.11987041       1.00760930       2.50489000       2.28852000       0.58479000      -2.43092489       0.98331165       1.29419899       2.65133739       2.31316853       0.59690386       2.24072146       1.55398560       1.54008794
C        7.62810004      12.65245630      10.61065747       0.73655020      -0.00591700      -1.41842153       0.08959919       0.11676676      -1.37478009      -0.05426000       0.11725000      -0.79809000      -1.11928201       1.08579397      -3.61743975      -0.03003162       0.00865024      -0.76755053       0.40480316       0.08399487      -2.00241923
C        7.94312859      12.34698718       8.15720107       0.83405586      -1.16973761      -0.82816256       1.09774755      -0.73139181      -1.10133494       1.34153000      -0.21794000      -1.22315000      -5.26099777      -0.53967881       1.84889066       1.37125146      -0.20081981      -1.30503547       0.68229735      -1.16218340      -0.96312284
C        7.17201437      11.20447912       8.19307493       0.88731760      -0.45537322       0.15453387      -0.02584263      -0.43040266      -0.77352525      -0.32099000      -0.89663000      -0.99009000      -0.72875142       3.73163843      -0.35096407      -0.42264214      -0.82364714      -1.02901042       0.39694548       0.01275510      -0.61407727
C        9.24595202      12.35572478       7.34213515      -0.50399112       0.32184609      -0.05034365      -1.64465099      -0.57467214       0.92163797      -1.86018000       0.07239000       1.09342000       2.72449708      -1.49952936      -3.90975976      -1.97608972       0.18944900       0.89167631      -1.39462233      -1.04387200       0.57403022
C        9.64547780      11.23192503       6.68295599      -0.60904696      -0.58475028      -0.19943045      -0.87220961      -3.01703887      -0.25002848      -0.73904000      -3.40298000      -0.63996000      -0.66139680       2.19829655      -0.51516104      -0.80108130      -3.31508493      -0.78810912      -1.16679430      -2.61233473      -0.04313421
C        6.76507944      11.51186435      10.59144711       0.78410744      -1.42278364       0.12994640       0.02597081      -2.35768429       0.59957404      -0.13192000      -2.00369000       1.04833000      -2.24070525       0.23538530      -3.01078224      -0.17845166      -1.85375619       1.04960537      -0.03692174      -2.57494164      -0.05019462
C        6.53824839      10.74790450       9.39806003      -0.32440338      -0.01743935      -1.05151522       0.76612327       1.06395863       1.36938710       0.53443000       0.57720000       1.01296000      -2.43645096       4.39964962       1.79698253       0.25910231       0.51226819       0.98489887       0.81947613       1.46771908       1.78194356
C        6.99817435      10.74681333      11.89107671      -0.04597163      -0.41237112       0.13950414       1.02483059       0.92915402      -2.43410649       0.78547000       1.42526000      -2.27772000      -0.74201918      -2.18143773       0.90486002       0.60165972       1.34971440      -2.24293375       1.16714954       0.33529890      -2.40923119
C        7.05229349       9.37336069      11.75527427       0.72820573      -0.12074814      -0.36756282       0.17695786      -2.56429592       1.17050663       0.04846000      -3.00792000       1.01156000      -0.67820549       1.35182834       3.73470569      -0.00373530      -3.04186606       1.04987752       0.36900645      -1.93544841       1.45400393
C        8.09219007      11.46084994      12.57179094       0.56796282       0.53686008      -0.46177835       0.19414341      -1.45715135       0.99476061      -0.14537000      -0.96644000       0.74246000       0.24150133      -1.11840546       2.79238248      -0.09201821      -0.71107858       0.63646519       0.46669978      -1.96645343       1.18082345
C        9.06355300      10.70254704      13.33458057      -0.18072984      -0.40282186      -0.17282622      -1.62442082       1.63977751      -1.03913470      -1.19422000       1.33542000      -0.65310000      -2.53149748       1.18944383      -0.32078600      -1.22713459       1.07741618      -0.67752433      -1.89853823       1.84588122      -1.47424114
C        6.59862222       9.28308246       9.37055320       1.02734117       1.14145077      -0.08669401      -0.74070773      -1.65892226       0.47636269      -0.84057000      -1.09622000      -0.08026000      -2.95929432      -4.72737598       2.90296698      -1.12533593      -0.99846625      -0.13511682      -0.63148952      -1.92634320       0.98659170
C        6.79662531       8.49910383      10.52899404      -0.08508031      -0.02796609       0.81922468      -0.03592140       3.60150876       0.27684178      -0.01710000       3.04160000       0.84236000      -2.77310348       2.68527412      -3.65031672      -0.02714074       2.97214246       0.89441347       0.06231797       3.90153551      -0.20682967
C        7.08654199       8.81900454       8.06229975      -0.19141744       0.89221194       1.13375547       2.19819955      -1.09103160       2.14476108       1.65986000      -0.74075000       1.92859000       0.26171160      -3.39365768      -0.53640151       1.51165986      -0.81866688       1.86433780       2.61531782      -1.39641476       2.05471730
C        7.94654682       7.64620788       8.14271883      -0.19127970       1.55019449       0.20387610       1.60516496       1.03347727      -0.43515929       1.67846000       0.47796000      -0.41690000      -3.07896090       0.96885180      -1.44114113       1.51846647       0.26658195      -0.48819068       1.29024875       1.41401815      -0.46853536
C        7.55986935      10.02763979       7.40516240      -0.11373309      -0.21473890       0.90524884       1.56720431      -1.09920850      -0.89806688       0.85422000      -0.83298000      -0.57018000       2.86876631      -1.92020273      -3.87841415       0.62091255      -0.70206785      -0.52473450       1.92085385      -1.40166330      -1.16391134
C        8.82735659       9.96209061       6.77480517      -0.22919022       0.02764203       0.65368897      -2.80891745       2.32845589      -0.13064113      -2.01335000       2.25551000      -0.48781000      -5.21354198      -1.03014648      -0.78275228      -1.69731879       2.23113394      -0.48000681      -3.19953775       2.52092910       0.22281948
C        7.67103571       7.35810497      10.59101917      -0.49385415       0.10191535      -0.43099923       0.76110259      -0.42071303      -0.83058371       0.36131000      -0.32840000      -0.37827000       1.29269218      -2.46759629      -2.07868004       0.29718450      -0.31251973      -0.19210109       1.11019504      -0.37637246      -1.45919061
C        8.32877183       6.95571142       9.40786037      -0.50936678      -0.39960394      -1.16009003      -2.19774644       0.87576436      -0.55906754      -1.93376000       0.67130000      -1.00508000      -2.87326193      -0.52970505       1.74443984      -1.83863080       0.58095229      -1.08706856      -2.28545380       1.16970646      -0.06792733
C        8.38234013       7.32733638      11.84445988      -0.08734614       1.03360689      -0.51496910       0.17714192       2.22833536       0.50983723      -0.40791000       2.13257000       0.64723000       1.81729102      -1.87908816      -0.00274873      -0.72716695       1.94348419       0.75163633       0.80864191       2.25818110       0.54563594
C        9.73744173       6.94879250      11.82882676      -0.19183976      -0.50959410       1.15362969       0.00768181       1.08607454       1.19886763       0.54488000       0.87650000       1.26852000      -3.04239631      -1.01135254       0.05272126       0.76096129       0.86009121       1.24848485      -0.77362454       0.91585886       0.80824214
C        7.93068552       8.58501863      12.61969398       0.89337836      -0.89339339       0.32547102       3.85144655      -0.09641138      -0.20918429       3.22832000      -0.42368000      -0.37227000       1.97542071       1.22457862       2.70367765       3.02015352      -0.62263340      -0.34433609       4.17437315      -0.16293164       0.08448458
C        9.02750117       9.24669303      13.34585029      -0.10600640      -0.02056486      -0.36741355      -2.67872456       0.09642662      -1.00747112      -2.09689000       0.20238000      -0.54148000      -3.26233125       0.04728174      -0.31844711      -2.03957796       0.46197706      -0.31206506      -3.22029877      -0.01107246      -1.47104251
C        9.70098085       6.52342426       9.35899308      -0.93671057       1.09524950       0.25400510      -1.50523597      -0.57780905       3.00652486      -1.55193000      -0.64039000       2.33584000      -0.64941871      -2.08254051       3.61035156      -1.63745689      -0.68600130       2.08159637      -1.52787709      -0.38865304       3.62417769
C       10.34907558       6.48300556      10.63989547       0.91010760       0.11644818      -0.10554190       2.48063940       0.59047056      -2.79053210       2.58200000       0.41732000      -2.22715000      -0.91244102      -1.79527855      -2.32084656       2.71169376       0.42584246      -1.99841106       2.11971879       0.62200648      -3.04316521
C       10.24522050       6.90398411       8.10498591      -0.34023916      -0.48220974       0.17618442       1.45469667       0.37710740       0.43878699       0.76456000       0.05654000       0.34820000       4.14181471      -1.09247065      -0.04655290       0.51026940      -0.11171573       0.41782743       1.80461979       0.48783004       0.51532304
C       11.56682487       7.34876971       8.16381986       0.79007563       0.32109985      -1.08230256      -0.07983841       0.87557511      -1.59417563       0.58123000       0.98777000      -1.53206000      -1.58617604      -1.60864019      -1.87240410       0.75452805       1.11350620      -1.74234700      -0.43062276       1.03010011      -1.67527604
C        9.23119488       7.61272280       7.35021679       0.89181273       0.65878370       0.58898880      -1.12767373       0.87735239       0.84739624      -1.21143000       0.24976000       0.97072000       0.51756495       2.52652073      -3.61583805      -1.13200617       0.08262748       0.91780019      -0.92290211       1.45407867       0.76080108
C        9.62453159       8.78699958       6.73560469      -0.58521266      -1.10350922       0.12109084       0.21000656       0.50383278      -1.33419034       0.37521000       0.92057000      -1.57463000      -2.38783669      -2.02815652      -0.67424870       0.27525061       0.99905795      -1.58964074       0.02839789       0.01243198      -0.91290015
C       11.82307759       6.89842785      10.62033970      -0.56445613       1.00107900       0.25422283      -1.42653718       1.32027328       0.34061077      -1.44830000       0.87584000       0.80798000       3.25029492      -0.87519026      -2.36080146      -1.48149621       0.66124332       0.81031418      -1.10162449       1.53243279      -0.28723371
C       12.33216923       7.38145477       9.38565259      -0.61828150       0.50039631       0.61586696       0.01091378       0.27315331       1.26767814       0.25829000       0.41664000       0.71912000       0.17488575      -2.14457989       3.00858331       0.40488338       0.48167801       0.73125005      -0.15081945      -0.02413255       1.91683459
C       12.09463046       7.64903431      11.91619787       0.83139378       0.30219413       0.51218891      -1.94284410      -0.04257664      -1.88260451      -2.13581000      -0.61143000      -1.66820000       2.82744455      -0.15031219       1.80159140      -2.16536212      -0.84013784      -1.43240929      -1.55801666       0.30778053      -1.78787422
C       12.82612876       8.83209645      11.83787467      -0.52644745       0.38399302      -0.70996345       0.18271014      -0.86101452       0.37703916       0.58595000      -0.25170000       0.40670000       1.29045081      -3.55581737       2.11293507       0.78485703      -0.06373048       0.38837487       0.02997607      -1.38974798       0.34002605
C       10.77359614       7.71477807      12.62357696       1.12525505       1.01587860      -1.94608172      -0.10372458      -1.03302186      -0.08121630       0.08865000      -1.57142000      -0.45282000       0.78132224      -0.43554091       5.25438261       0.13674821      -1.76899326      -0.55076855      -0.04453610      -0.55123222       0.26383424
C       10.39154702       8.75639399      13.46759542       1.02131722      -0.27431946      -1.49997359       0.85087411       0.99695949      -1.66550819       0.53516000       1.40976000      -1.11489000       0.73517936      -2.66906595      -0.86382484       0.56353766       1.52604508      -1.01045322       0.97800016       0.78651637      -1.95753300
C       13.14613515       8.60222625       9.33300891      -0.05340646      -0.01054238       0.30185689       1.53810872       0.21831751       4.55062856       1.43151000      -0.09853000       3.78618000       3.63541746       0.42114198       2.60922289       1.29552197      -0.24215697       3.68128633       1.40929925       0.48952964       4.74958658
C       13.48549636       9.29370210      10.62277260      -0.68241521       0.79296207       1.70766505      -1.53291825      -0.84085314      -3.05968199      -1.26903000      -0.58664000      -2.42665000       0.75157404      -1.42054296      -2.59130740      -1.20384371      -0.55063266      -2.16856647      -1.52218199      -0.82826704      -3.24709463
C       11.98250190       8.50059495       7.31958781      -0.45088113       0.44165221       1.11867875      -0.72941106       2.78083116       0.24256052      -0.22863000       2.20831000       0.47261000      -1.10012579       0.73430014      -5.02496052       0.04886482       1.81037760       0.33925337      -1.03568077       3.07023215       0.00611722
C       11.00242574       9.26251810       6.57302763      -0.77950680       0.16964155      -0.56746093       0.89941775      -2.52494084       2.38278858       0.46537000      -2.02873000       1.84992000       2.53662109      -4.48871231      -0.16816759       0.61096680      -1.88505316       1.34241593       1.33948064      -2.72258377       2.61071873
C       12.43641856       9.96863052      12.65368168       0.04928397      -0.99657985      -1.17690883      -1.31354140       0.78698743      -0.19665931      -0.67746000       0.67917000      -0.48329000      -1.45974374       0.26280069       3.14655256      -0.55784696       0.66827643      -0.53436154      -1.71608806       1.07946849       0.23631048
C       11.27410304       9.98902491      13.46010192      -1.42588694      -0.06131216      -0.48193800       0.36812752      -0.24715776      -1.55793446      -0.11042000      -0.16805000      -0.97905000       3.96478605       0.58205134      -0.73986602      -0.13737214      -0.15444538      -0.78046179       0.74953496      -0.38387758      -1.95274353
C        9.99491088       9.95760388       9.92725426       0.32204244       0.25549711       0.42313748       0.48367254       2.71894705      -0.99153998       0.47720000       2.88537000      -1.00670000      -1.48979449      -1.39949703      10.53702927       0.94768173       2.67099595      -0.80431640       0.77261287       1.98020864      -0.70452631
H       10.61927960       9.28705585      10.68498597      -0.41252512       0.13305408       0.00154631      -2.56048263       1.04057508      -1.55163368      -2.36279000       0.91897000      -1.38499000     -14.98429966      12.07628632     -13.75844765      -2.01051712       0.95569712      -1.39506817      -2.07824516       1.51947880      -1.72845423
H       10.69754103       9.79749045       8.78987070      -0.15930281       0.18714517       0.00512522      -2.41659074       1.13270946       3.86601631      -2.34211000       1.10160000       3.73980000      -1.44847012       2.07464981       2.33616972      -2.60647273       0.89552617       3.82930493      -2.02058601       0.67467397       3.11033773
H        8.75727902      10.04079048       9.61676250       0.09650920       0.47063503       0.49134746       3.98127152      -1.41811765       1.43477506       3.73140000      -1.33812000       1.34292000      14.83847523      -4.34597874       3.07409191       3.36271048      -0.96393585       0.90227550       2.78916073      -0.79798579       0.88664943
H       10.03756307      11.19604676      10.53064227      -0.11447305      -0.77000481      -0.33203018       0.45259183      -3.68778848      -2.34703720       0.43905000      -3.72542000      -2.34254000       2.63076544      -6.85209274      -4.27367592       0.26838082      -3.69488764      -2.09959507       0.19483480      -3.03967762      -1.63494253
65
Lattice="20.0 0.0 0.0 0.0 20.0 0.0 0.0 0.0 20.0" Properties=species:S:1:pos:R:3:momenta:R:3:spice_forces:R:3:castep_forces:R:3:maceoff24_forces:R:3:gomace_forces:R:3:maceoff23_forces:R:3 config_type=fullerene name=fullerene_60 spice_energy=-63354.65265482266 castep_energy=-9660.837071965 maceoff24_energy=-63338.07421875 gomace_energy=-9658.9033203125 maceoff23_energy=-63349.6796875 pbc="F F F"
C       12.44264100      12.59732985       9.31868131      -0.24024078      -0.65520938      -0.71746421      -2.25379869       0.45909229      -0.76696347      -1.74255000       0.25473000      -1.25532000      -1.63651347       2.66146445       0.98501456      -1.52264464       0.29611754      -1.34476066      -2.41979861       0.80402774      -0.30148861
C       11.75495800      13.10207233      10.44028861       0.68129475       0.29336581       0.00175565       1.88838972      -2.01643120       0.72021738       1.48716000      -1.57038000       1.20576000       3.89227772      -0.39654684      -2.11324811       1.38159943      -1.33424735       1.31985259       2.23499894      -2.24519157       0.22098354
C       11.59734468      12.49004134       8.11190509       0.72526427       0.60033915       2.55007724       0.37606405       1.06645607      -0.27376437       0.97844000       0.80331000      -0.28839000      -2.21199322       3.55971146      -0.65162456       1.00062931       0.78531063      -0.25022236      -0.36015815       1.34941721      -0.28676850
C       10.30260709      13.04010252       8.10064259      -0.18157609       0.45077933      -0.61787509      -1.19412365      -2.07713991      -0.87621568      -1.69550000      -1.66919000      -0.89246000       3.97990894      -0.96690941      -2.01684713      -1.72379243      -1.55712438      -0.87529069      -0.54454994      -2.38058043      -1.03765178
C       13.06492166      10.61909918       8.08471552       0.90656278      -0.44720135      -0.28458735      -1.29917496       1.43560675      -0.27532528      -0.99949000       1.86047000      -0.30651000      -0.27889681      -1.79249525      -1.52892017      -0.80958062       1.88481259      -0.33518475      -1.54415202       0.77172828      -0.42469430
C       12.95452271       9.24415567       8.14316794      -0.52480970       0.05777240       0.09989719       0.92933611      -0.17643663      -0.49222778       0.90580000      -0.69098000      -0.43141000       0.84408998       2.11091495      -1.77699447       0.84298629      -0.77391660      -0.41279215       1.01080203       0.39573544      -0.56828463
C       13.32051823      11.44590257       9.28077462      -1.07874293      -0.29050883       0.03887263      -0.39402401      -1.90788497       1.73117728      -0.35760000      -1.36855000       1.08699000       1.90758228      -1.36602139       3.74024105      -0.24749047      -1.17267036       0.84733319      -0.47481048      -2.02238846       2.16613269
C       13.44564616      10.70433160      10.47600379       0.19757778      -0.30344310      -0.15079609       0.07300718       1.50309953       0.10538482       0.19809000       1.01958000       0.64595000       2.15617037       1.26998329      -1.98950171       0.24084139       0.81997740       0.87076855       0.21963835       1.75151169      -0.23928335
C       12.04935432      11.32421747       7.30585928       0.26167444       0.29659564       0.15475290      -2.89355749       0.54272019       0.21985621      -2.37061000       0.85094000       0.35218000      -2.58272362      -0.29130054      -2.58492422      -2.32305670       0.89392030       0.30950987      -3.35496616       0.36832970      -0.05462694
C       10.96687295      10.66121578       6.62502001       0.53871270      -0.68838534       0.24346732       1.58279283       0.48968292       0.04459850       1.09594000       0.30457000      -0.29417000       5.04750729      -0.14359331      -0.31079149       1.10472465       0.37456700      -0.45399442       1.89088368       0.69728172       0.50847948
C       10.37211052      13.56223597      10.43319299       0.18547308       0.73930796       0.01252330       1.21823942      -0.10252175       2.36945090       1.61632000      -0.01189000       2.76609000      -1.44711232       0.41230536      -0.71269405       1.80705857       0.08981287       2.89017057       0.88543475       0.01449275       1.80884743
C        9.60768320      13.52400024       9.32884587       0.78517492      -0.64619721      -0.38368239       0.34281108      -0.87993475      -2.43000748      -0.08151000      -0.71371000      -2.87159000       1.49422455       1.61373949       2.14807415      -0.10597692      -0.42897928      -2.96013117       0.93680465      -0.88613105      -2.13191938
C        9.81193643      13.21557315      11.71478781      -0.84684768      -0.77220737      -0.68167341      -2.45396447      -3.38087502       2.33418224      -1.73037000      -2.90660000       2.25973000      -4.50401497      -1.04134369       2.22639418      -1.51895750      -2.58285332       2.37653208      -2.78880358      -3.66612864       2.64924407
C        8.44786977      12.74877737      11.84384784       0.33987936      -0.50528688      -1.14290547       0.98244053      -0.29883754      -2.41185708       0.34587000      -0.42283000      -2.07758000       1.56685758       3.10366130      -0.88358450       0.16024567      -0.35917419      -1.89451849       1.41225696      -0.01088476      -2.66695881
C       11.99582432      12.33286818      11.71048373      -0.27061414       0.68840072      -1.30053928      -0.13757157       0.10143892      -0.37882988      -0.47007000       0.67179000      -0.33205000       3.34069347       0.01626420       2.71048117      -0.41779470       0.77111268      -0.42036718       0.36804461      -0.42821702      -0.24501613
C       12.82974555      11.20961202      11.74180274       0.16189332      -0.36271316       0.38057247      -0.52801290      -0.07929519      -0.78133012      -0.08654000      -0.57220000      -0.66759000       1.63950562       4.17262554       1.97789264       0.20065156      -0.48868191      -0.51495898      -0.84961295       0.68167597      -0.83283710