63
Properties=species:S:1:pos:R:3:castep_forces:R:3:spice_forces:R:3:maceoff24_forces:R:3:gomace_forces:R:3:maceoff23_forces:R:3 castep_energy=-10471.65032521 spice_energy=-67385.11979018894 maceoff24_energy=-67366.609375 gomace_energy=-10469.69140625 maceoff23_energy=-67381.8203125 pbc="F F F"
C       12.37334000      12.60838000       9.34448000      -0.62160000      -0.90140000      -1.00088000      -0.99108353      -0.80137847      -0.54725355      -0.40169716       1.08191872       1.56828105      -0.55664873      -0.94767207      -1.09889293      -1.13282096      -0.78801692      -0.20210427
C       11.82536000      12.99646000      10.55586000      -2.41173000       1.49970000       2.30782000      -2.45852894       1.37855815       1.83078859      -0.07393742       0.85387206      -0.76819432      -2.45084119       1.56293476       2.45129538      -2.47218633       1.17579317       1.35858333
C       11.58924000      12.63294000       8.06258000       0.89037000      -0.05045000       1.17959000       0.25325435       0.13100396       1.43887548      -0.55489659       2.49004865       0.64391184       1.22366309      -0.02021420       1.07812977      -0.14608410       0.41055810       1.68412375
C       10.25986000      13.12006000       8.07312000       1.51985000      -1.93985000      -0.31803000       2.25426942      -2.35479293      -0.27857596       4.15748835       0.58153391       0.36205482       1.34526312      -1.73611915      -0.29420504       2.62829161      -2.63395691      -0.11066157
C       12.94662000      10.67370000       8.07750000      -0.38698000      -0.11685000       0.16933000      -0.62286036      -0.63427635       0.09608592       1.14216995      -1.39877677      -0.38909054      -0.34136152       0.09800892       0.22109312      -0.84274721      -1.11777496       0.19772780
C       12.88960000       9.26910000       8.05222000       2.80854000       1.58106000       2.91788000       2.87207604       2.25644634       3.10558017       2.28589129       2.62976837       0.60009050       2.72144985       1.34011555       2.75932312       2.75277567       2.63365650       3.19969845
C       13.10512000      11.35808000       9.34296000       1.32706000       0.69087000       1.17133000       1.49295129       0.40197307       1.85514976       1.74779272      -0.71388495       2.49569249       1.15389490       0.73917830       0.86813974       1.49361706       0.29425102       2.30146980
C       13.40050000      10.74626000      10.58718000      -0.80329000       0.02220000       0.31913000      -1.06380115       0.27313651      -0.22575022      -0.05660248       1.17555201      -2.24538183      -0.80233335      -0.10233086       0.59378397      -1.23269832       0.48460039      -0.28045174
C       12.01306000      11.44340000       7.30240000      -1.91259000       0.42100000      -0.63739000      -2.36750430      -0.03241203      -0.91779304      -1.10061705      -0.30964804      -3.25495219      -1.67278981       0.62436062      -0.54616749      -2.79768229      -0.42406154      -1.17901301
C       11.02290000      10.77056000       6.52058000      -0.80831000      -0.88174000       0.01296000      -0.48316333      -0.77334694       0.42425041       4.79081154       0.68756104      -1.79355812      -0.95089483      -0.95921320      -0.28755528      -0.20748597      -0.74088305       0.89076495
C       10.41384000      13.48286000      10.60682000       0.49259000      -1.03005000      -0.88919000       0.30357934      -1.21522465      -1.58439511      -0.16997646       0.58109570      -3.79424739       0.49761847      -1.12167573      -0.74387121       0.11774410      -1.33649087      -1.89343786
C        9.72080000      13.36130000       9.37772000      -2.04675000       1.70540000       1.46989000      -1.76339208       1.81129557       2.14407261       1.30955172       3.27841353       2.29212666      -2.17374754       1.52060342       1.18899560      -1.52422345       1.82827890       2.55431294
C        9.76730000      13.07968000      11.90412000       0.31376000       0.03641000      -0.76610000      -0.22584094      -0.34047977      -0.75215895      -1.64588165       0.72812366       1.70375061       0.54412693       0.23326069      -0.80600095      -0.66125166      -0.58084708      -1.10902870
C        8.42492000      12.66424000      11.89970000       0.62463000      -1.50355000       0.50162000       1.32532682      -1.55304474       0.62837058       2.25906277       1.29556131       3.32003093       0.33306679      -1.41724718       0.38198745       1.66768765      -1.75206864       0.64417672
C       12.01472000      12.41794000      11.91294000       0.11381000      -2.49957000      -0.00866000       0.33382551      -3.29700277       0.06074332       3.17282796      -2.92320704      -0.21095181       0.07966673      -2.21994352       0.03869200       0.56530422      -3.70752668       0.17232019
C       12.80580000      11.21238000      11.91328000      -0.51987000       0.45818000      -1.65081000      -0.97882629       0.95378178      -1.83462654      -1.17524242       2.39526224      -0.00397325      -0.25879803       0.23924398      -1.62970161      -1.22893000       1.44464779      -2.24558520
C       10.74670000      12.42962000      12.76592000       0.44385000      -1.79381000      -1.18148000       0.31951926      -2.31401472      -1.20332217      -0.31366587       0.89659953       0.71536946       0.61040711      -1.49101591      -1.15301073       0.45330843      -2.58084464      -1.09813547
C       10.36304000      11.18148000      13.52980000       1.12959000       1.21912000      -0.69491000       1.19598087       1.55578508      -1.07733680       2.30632949       0.65955424       1.06749630       1.07170618       0.99321795      -0.49736786       1.35463786       1.51637387      -1.59449983
C        8.26622000      12.98736000       9.39710000       2.25099000       0.28889000      -1.29363000       2.09352919      -0.00580714      -0.84971078      -1.65053999       0.80683947       1.13003325       2.34513211       0.36572671      -1.30950963       1.86020446      -0.29961675      -0.37711209
C        7.70156000      12.56600000      10.57922000      -0.01567000      -0.03632000       1.73910000       0.30946844       0.03826692       1.19442516      -1.06047535       2.46633363      -3.23701382      -0.07332900      -0.02541482       1.86301112       0.63742864       0.28292823       0.84813046
C        8.07206000      12.33902000       8.10166000      -1.24982000      -1.84737000       0.10263000      -1.57777031      -2.50543126       0.20794220      -3.58248639      -0.59666443      -0.75326896      -1.04680812      -1.60552001      -0.02578509      -1.73927343      -2.89573812       0.18283617
C        7.24712000      11.14532000       8.10174000       0.87623000       1.05863000      -0.50610000       1.31470088       1.48094700      -0.53435654      -0.90534163       2.59074903      -0.02914405       0.63860500       0.79248810      -0.34702834       1.62657404       1.85451365      -0.31713116
C        9.28630000      12.36866000       7.27010000      -1.56584000      -0.70055000       0.57402000      -1.57398808      -1.35340043       0.35699276      -1.99043894      -0.62083626      -3.44759107      -1.82768726      -0.35831264       0.69170845      -1.65543795      -1.89953971       0.26753223
C        9.54926000      11.20162000       6.48046000       2.57311000       0.54399000       0.91139000       2.60259829       1.03226817       1.42096328      -0.80905205       3.97423077      -0.71512556       2.59853411       0.37739223       0.67050576       2.50858641       1.25777674       1.58912587
C        6.85724000      11.39876000      10.60730000       0.55307000       0.16219000      -1.52503000       0.67293046      -0.10950286      -1.93609839      -1.01105070       0.62156928      -0.19483003       0.63190937       0.24268281      -1.11342585       0.81126112      -0.59589309      -2.11860323
C        6.70614000      10.68494000       9.34170000      -0.62324000       1.21990000       2.18195000      -0.49119098       1.38436613       2.76873208      -1.59141588       0.88061512       0.38669172      -0.64029223       1.09454036       1.82222915      -0.37493002       1.64795589       2.89972830
C        7.11564000      10.74580000      11.84096000       0.36071000      -2.27199000       3.09946000       0.38356758      -2.97416888       3.19359117      -2.72483134      -0.86733973       0.45911527      -0.00157076      -1.85554981       2.99775982       0.77007335      -3.22545552       3.08912325
C        7.08194000       9.28404000      11.94048000      -0.17772000       2.11824000      -0.77603000      -0.21417536       2.80464408      -1.07578398      -1.99614787       1.67850304      -0.16867924      -0.29039234       1.67500424      -0.57186908       0.15298420       3.04831195      -0.84819150
C        8.09434000      11.46580000      12.77430000      -1.10685000      -0.66329000      -1.74525000      -0.72577982      -0.89455788      -1.69145749      -1.05370212       1.96451235       1.87456918      -1.60263026      -0.28953344      -1.66769171      -0.45111769      -1.46436501      -1.50416791
C        9.00832000      10.67372000      13.67554000      -1.62508000       2.38637000      -2.65049000      -1.91959169       2.78485983      -3.23415256      -1.61833477       4.94017029       3.32385874      -1.38723099       2.47001219      -2.14642906      -2.23934436       2.97752047      -3.57110667
C        6.67076000       9.27926000       9.40662000       0.51371000      -0.88967000      -1.10270000       0.68566618      -1.05905665      -0.65066848      -1.66609240      -0.37429535       2.32613182       0.46013337      -0.76089627      -1.37256718       0.79390866      -1.29814553      -0.31745154
C        6.85652000       8.64948000      10.64620000       1.42601000      -2.24442000       0.03070000       1.55072250      -1.93357943      -0.31446349      -1.88229084      -0.27945900      -1.97074199       1.44118071      -2.44352198       0.14392951       1.81431079      -1.77330971      -0.73969555
C        7.27458000       8.78462000       8.06938000      -1.99027000       2.12580000       1.52460000      -1.52893752       1.66077638       1.61459599      -0.37817121      -2.30424976      -2.11373138      -2.20852137       2.35499525       1.55406630      -1.23956704       1.33320320       1.75954354
C        8.08350000       7.71050000       8.05908000      -0.28943000      -1.62927000       1.35996000      -0.77696246      -0.99026928       1.39605944      -2.80270028      -0.10972834      -1.38497138      -0.02766502      -1.73966002       1.29782939      -0.94993478      -0.60963953       1.74048913
C        7.56460000       9.96380000       7.28338000       0.54786000       0.73974000       0.26928000       1.17026096       0.83849318       0.01600314       0.34882259      -0.50295115      -3.98132443       0.30399331       0.67866385       0.32798791       1.78953779       0.86161095      -0.12998736
C        8.72724000       9.99758000       6.48978000       0.86905000      -0.83292000      -0.03225000       0.47880718      -0.94351005       0.42334265      -3.57082605       0.50400776      -0.87490463       1.03701258      -0.80648673      -0.22176623       0.36428452      -0.88267046       0.75963789
C        7.73660000       7.42082000      10.61848000      -1.11067000       0.80913000      -0.74735000      -0.83319191       0.65251956      -1.52065651      -0.38103318      -3.64840555      -3.57838726      -1.21960247       1.02099526      -0.54190540      -0.75194955       0.66917640      -1.72492635
C        8.24368000       6.99690000       9.36648000       1.95172000      -0.21492000      -0.15240000       1.81134849       0.08281966       0.55477941      -0.70058036      -1.12995791       2.49857330       2.09019065      -0.35046875      -0.37695903       1.68383718       0.31256586       0.73436868
C        8.42620000       7.33780000      11.90636000      -0.07624000       1.59922000       0.92611000       0.66149828       1.58158537       1.11010565       2.84403682      -2.24158454       1.19520116      -0.33290800       1.71763861       0.95487165       1.39143658       1.62187481       0.95287520
C        9.75168000       6.94212000      11.96048000       0.97640000      -0.84789000      -2.44017000       0.37589891      -0.55354979      -2.68642913      -3.32940555      -1.11765409       1.48593378       1.19709539      -1.10668230      -2.52174139      -0.29560426      -0.22855896      -2.94433641
C        8.02928000       8.53620000      12.77876000       0.37497000      -0.22716000      -0.59699000       0.96607770       0.00286774      -0.39477054      -1.07018995      -1.26898646       3.29751134      -0.26864940      -0.60620463      -0.60152531       0.85215896       0.44713065      -0.63600266
C        8.96354000       9.19214000      13.71630000      -0.10395000      -0.10361000      -2.83710000      -0.41321306      -0.31943850      -3.48191342      -0.93063200      -3.54550457       3.82726836       0.13746500      -0.20074576      -2.33605051      -0.36970437      -0.28029963      -3.48764610
C        9.66052000       6.51860000       9.29620000      -1.07991000      -0.14238000       3.02244000      -0.71891070      -0.05529131       3.58079432       1.23184896      -2.21756268       2.75951242      -1.20097840      -0.08289218       2.79903150      -0.53732955      -0.04524279       3.99709010
C       10.38642000       6.49242000      10.55814000      -1.26318000       1.09616000       0.53323000      -1.51248005       1.33840259       0.10202589       1.14566088      -0.72815895      -3.59514236      -1.17302477       1.01930940       0.76404762      -1.45117271       1.43094170      -0.39236283
C       10.24936000       6.92340000       8.05908000       0.55841000       0.42993000       0.30672000       1.11723701       0.68438814       0.55777542       3.06856489      -1.80735350       1.08359170       0.40677017       0.34836102       0.24822465       1.52483594       0.83088148       0.81722617
C       11.55226000       7.41354000       8.12192000       0.86733000       0.09440000      -0.70973000       0.35522800      -0.07523373      -0.61584314      -0.19215798      -2.38559484       0.28033113       1.09162998       0.09782344      -0.67844611      -0.14119750      -0.15508938      -0.39761159
C        9.28494000       7.65518000       7.26614000      -0.02408000       0.79243000      -0.69308000       0.12411245       1.45557856      -1.03936753      -1.31431174       1.12081885      -3.65037775      -0.14898923       0.47982788      -0.52963191       0.25240040       2.11165094      -1.28311324
C        9.63260000       8.76768000       6.42670000       0.04728000       1.39136000       1.47041000      -0.17410953       1.06836589       2.04780353      -1.45193243      -3.64787149      -2.01531792      -0.00233236       1.42993891       1.17210102      -0.26434714       0.83943778       2.26358867
C       11.70834000       7.02366000      10.55096000       0.40048000       0.02512000       1.34776000       0.49810449       0.16741682       0.88501911      -0.09653592      -1.04678869      -1.67965519       0.21979713       0.05529648       1.66314960       0.47596508       0.36883968       0.54072595
C       12.31006000       7.44380000       9.34422000       0.66531000       0.47310000       1.33887000       0.32391343       0.36382903       1.87706834      -0.85173273      -1.47216344       1.52543676       0.62288016       0.58294702       0.98455811       0.06539056       0.30459893       2.17854261
C       11.97174000       7.67974000      11.88208000       0.81592000       1.58474000      -0.41336000       1.13231116       2.31048313      -0.44186477       2.97913361       2.00743818       0.58970833       0.71546233       1.29604149      -0.34688663       1.29804087       2.49258304      -0.43532404
C       12.87474000       8.84528000      11.89154000      -2.68051000      -1.71005000      -0.45689000      -3.29757074      -2.26903636      -0.50997545      -1.76597404      -2.79590535       0.24296045      -2.45953345      -1.50600135      -0.39454204      -3.63713670      -2.44069600      -0.39645830
C       10.76410000       7.63500000      12.76820000       0.12936000       0.58534000      -1.49812000      -0.03076885       1.10708690      -1.31406955      -0.18790984       0.05925345       1.15660572       0.31244990       0.38663298      -1.61056542      -0.00282361       1.41361356      -1.21866989
C       10.37588000       8.76976000      13.56296000       0.88087000       0.67215000      -0.55574000       1.05732335       0.34407033      -1.07819512       0.73356891      -2.44527388       0.94468808       0.84145737       0.82204497      -0.27462244       0.75544584       0.38798016      -1.57333422
C       13.23274000       8.61916000       9.38442000      -2.16105000      -1.26161000      -1.50199000      -2.30785743      -0.98846500      -1.05829368       0.36254239      -0.30045223       1.31695974      -2.07250071      -1.36849356      -1.62674570      -2.33538651      -0.93311793      -0.46684799
C       13.40816000       9.29646000      10.60444000       0.14435000       0.27244000      -0.40573000      -0.03477689       0.03073754      -1.02698381       0.37819815      -1.02941346      -2.51659536       0.21282458       0.34545836      -0.21504241      -0.09022141      -0.13844496      -1.37848246
C       11.97056000       8.55260000       7.30060000      -1.54124000      -0.13361000      -0.77643000      -1.97028238       0.29609269      -1.05945241       0.14060616       1.25132084      -2.58953452      -1.17489314      -0.24296378      -0.59773898      -2.32910395       0.77624583      -1.21211672
C       11.03756000       9.29476000       6.50552000      -0.92698000      -0.53802000       0.14644000      -0.59027920      -0.73917112       0.61607873       3.69390392      -1.95897079      -2.27869081      -0.98143619      -0.48217806      -0.16473776      -0.52906781      -0.87232208       0.81326824
C       12.39926000      10.01250000      12.62776000      -0.11103000       0.50938000       1.01534000      -0.64965153       0.55132675       1.33744727      -0.41582060       1.03262734       2.06836748       0.07380104       0.49049455       0.87480325      -1.08696938       0.37631667       1.48697746
C       11.23606000      10.02986000      13.49294000       0.40014000      -1.58948000      -1.04917000       0.79860587      -1.70612702      -1.49171642       2.11325955       0.85197645       0.07848978       0.21314579      -1.59218454      -0.97319090       0.95773542      -1.52205181      -2.05337334
C        9.67902000       9.97916000      10.00620000      -0.56279000      -0.02782000       5.06628000      -0.27349092      -0.05430605       4.75602977      -0.57852507       0.44295734       7.97472811      -0.24958375      -0.02501211       5.23574734      -0.24007562      -0.08843872       6.68805218
O        9.45514000       9.98442000      11.15784000       0.74000000       0.00719000      -0.89141000       1.14016028      -0.02040771      -2.63396246       3.32417607      -0.58409107       1.26501179       1.25461292      -0.03989392      -1.53449857       1.20271480      -0.11983025      -3.91893649
O        9.99582000       9.96060000       8.92394000       1.20932000       0.00983000      -4.51167000       0.60867735       0.03999517      -2.53722563       3.51691055      -0.15605548      -4.62470579       1.17102873       0.00880780      -4.48932648       0.33532527      -0.00488441      -3.45613003
63
Properties=species:S:1:pos:R:3:castep_forces:R:3:spice_forces:R:3:maceoff24_forces:R:3:gomace_forces:R:3:maceoff23_forces:R:3 castep_energy=-10472.87668892 spice_energy=-67386.74537754898 maceoff24_energy=-67360.1015625 gomace_energy=-10470.775390625 maceoff23_energy=-67382.6875 pbc="F F F"
C       12.21854000      12.68712000       9.63674000       1.64194000      -1.28074000       1.55831000       1.45627800      -1.38246342       2.26030537       0.32764006       3.84981298       1.59809613       1.72490692      -1.32748675       1.28061342      -0.47746885      -2.56257224       1.22691321
C       11.64896000      12.88200000      10.90674000      -1.64209000       0.80493000       0.66966000      -1.55161368       0.70731331       0.10628491       1.18941724       3.24591637      -0.62122530      -1.82858908       0.96751732       0.92266780      -2.61843157      -2.12071013       0.37961099
C       11.45980000      12.80142000       8.46910000      -0.44880000       0.19740000      -0.86443000      -1.19272792       0.29881564      -0.86210705      -1.82053614       3.99350858       1.36724019      -0.32718083       0.17118090      -0.75813431      -0.52172053      -0.47349441       1.27625680
C       10.11970000      13.11454000       8.63220000      -0.52433000       1.88240000       0.31942000       0.12279397       1.83202683       0.35255100       3.13496637       2.05510092      -3.91233039      -0.77900696       1.84509218       0.26788521      -0.97119230      -0.19408011       0.30464292
C       12.89940000      10.97450000       8.08850000       1.64518000      -1.15925000       0.76473000       1.73105503      -1.83027596       0.76866536       1.96967936      -0.43385619      -2.89524555       1.65233099      -0.87558031       0.64401597       2.94620752      -0.59882939       0.53257477
C       12.98908000       9.54490000       7.89256000      -0.54091000       2.15617000      -0.38932000      -0.78848537       2.86143142      -0.33736356       5.55136108       1.82467270      -4.04763460      -0.40443027       1.94760990      -0.59211588      -0.42412746       0.82123828      -0.72158134
C       13.14710000      11.53816000       9.40096000      -0.29091000       0.51280000       0.17626000      -0.24505635       0.08127843       0.76803322       4.51428699       0.22320342       1.17937958      -0.27057624       0.71319765       0.06352776      -0.51948071      -0.29857752       1.27765369
C       13.42358000      10.70390000      10.45554000      -0.61530000      -1.02790000       2.08314000      -0.85269498      -0.75336176       1.62853585       2.09536362       4.74451780      -0.14605418      -0.44263089      -1.18120241       2.13988042      -1.24463046      -0.69949883       1.55564010
C       11.92558000      11.79318000       7.49562000      -1.75771000       0.59541000      -0.41201000      -2.39611449       0.28585820      -0.72196382       1.42245412      -0.01721716      -4.39240837      -1.52184463       0.58602905      -0.50588506      -2.61247683       0.17513916      -0.95131254
C       10.94742000      11.18944000       6.71110000      -1.21081000      -0.38250000      -0.01917000      -0.83235568      -0.21276423       0.44097588       2.37154293       2.27866459      -2.46681643      -1.31728017      -0.31037441      -0.28050083      -0.50335687       0.17635691       0.30519104
C       10.23960000      13.30390000      11.07560000       1.65923000       0.92866000      -0.08879000       1.28579822       1.01227207      -0.65206310       0.75223088       3.43967581      -0.93068373       1.81831658       0.93078142       0.02025127       0.89997351      -0.04095399      -1.09288192
C        9.49612000      13.50120000       9.94334000       0.80127000      -0.51143000      -1.42134000       1.19440954      -0.73538048      -0.98931495      -0.48009631       2.67091417       3.02666998       0.61867017      -0.46933430      -1.57387972       1.13102055      -1.10085380      -0.39798328
C        9.68070000      12.77600000      12.30020000      -1.57898000       0.50216000      -1.19587000      -2.30884914       0.36553680      -1.37487821      -2.92660666       1.89045238       1.86991000      -1.35368800       0.61461228      -1.01566339      -1.86559641       1.34535885      -1.27056444
C        8.32616000      12.40882000      12.29174000      -0.96153000      -1.76826000       0.22564000      -0.38207648      -1.82547835       0.07448243       1.23163438       6.07663441       4.05723381      -1.10418463      -1.57911909       0.48231304      -1.85678053      -1.52553773       1.00911069
C       11.82954000      12.03504000      12.06580000       3.66266000      -1.00515000      -2.90141000       4.22221919      -1.58912097      -3.19761174       3.48172140      -0.59746981      -0.31812835       3.35207224      -0.89902288      -2.77225900       3.04503894      -1.90311575      -5.85973835
C       12.74734000      10.97366000      11.74800000      -0.15585000      -0.71241000       1.92531000      -0.61802832      -0.41268986       2.21744519       1.00627708       3.23094201       3.71404600      -0.08443034      -1.10428977       2.01567984      -2.89841223      -2.57195687       1.48547792
C       10.64126000      11.89850000      12.82228000       2.35804000      -0.47594000       1.33266000       2.48863560      -1.14256420       1.60256930       1.78035164      -0.57034373       2.59301329       2.46087980      -0.22974095       1.18700385       2.99446321      -2.37204504       0.82519090
C       10.47688000      10.66100000      13.43156000      -2.33091000       2.14980000       0.81627000      -2.38575661       2.84446782       0.55312328       1.78244388       1.84349787       2.11827707      -2.46171761       2.00501370       0.94040865      -2.71812201       2.47629285       0.20851588
C        8.15052000      13.08660000       9.92070000      -2.85138000      -1.62898000      -0.52970000      -3.24011229      -2.05784477      -0.02064262      -1.61676478       3.08132505       3.28319645      -2.71858931      -1.24937952      -0.93677354      -2.54682565      -0.36819518      -0.61741734
C        7.45172000      12.53926000      11.07820000       1.72811000      -0.49632000      -0.31702000       2.25056516      -0.30326009      -0.78678314      -2.58909655       7.26894331      -0.49832511       1.46635842      -0.47389984      -0.08835241       0.97490823      -0.05691206       0.69854558
C        7.89822000      12.46936000       8.54338000       0.84302000       2.28838000       1.68251000       0.56239701       1.83746761       1.70962462      -2.55329299      -0.12613583      -4.46393061       0.91191500       2.53707218       1.66567612       0.65122968       1.69192696       1.21322393
C        7.07312000      11.40274000       8.43214000      -0.95423000      -1.05712000      -0.13051000      -0.44215276      -0.66065968      -0.15563433      -0.00054789       2.87409806      -2.49843407      -1.03143120      -1.22604954      -0.29746771      -0.51454949      -0.50783598      -0.80320102
C        9.11562000      12.59034000       7.77834000       0.39256000      -1.03015000      -0.75062000       0.50209795      -1.63874234      -1.11925375       0.21765208       0.97415972      -2.52291965       0.38091257      -0.79637182      -0.50072569       1.18642330      -1.34729612      -0.72009659
C        9.53222000      11.58694000       6.84108000      -0.02121000       1.20431000       1.01496000      -0.22935213       1.62310315       1.55872619      -3.11967921       1.69743657      -1.17203331       0.00015247       0.96973097       0.81305432      -1.44394457       0.48678613       1.26315475
C        6.63002000      11.26618000      10.94620000       1.53534000       1.93064000      -0.07948000       1.66081644       1.75018297      -0.70045048      -6.28493547       1.85965657      -2.86808133       1.25242734       2.15738654       0.16700503       1.06146872       3.11687374       0.68801796
C        6.42726000      10.81064000       9.59374000       0.45834000      -0.87871000       2.32488000       0.65113988      -0.82950621       3.13944983      -4.14929008       0.40065801       2.77045107       0.15267634      -1.05278647       2.03371859      -1.23650491      -0.94162738       1.76514935
C        7.02372000      10.42608000      12.14152000      -1.05918000      -0.45113000      -1.68067000      -1.00691885      -1.05836255      -1.92325958      -3.36352015      -3.95169950       3.34698749      -1.13485479      -0.27862522      -1.48175955      -1.60632074       0.24483389      -0.97766912
C        7.04740000       9.02062000      11.93532000       0.92402000      -0.02503000      -0.47423000       1.11318004       0.56064461      -0.45143430      -3.22301435       0.68759519       2.19084406       0.80785882      -0.32172483      -0.35791111      -0.19704169      -0.64599001       0.10403395
C        8.03236000      11.06914000      12.93786000       0.78861000       0.46519000       0.03430000       1.23834299       0.13836938       0.19253690      -1.66698098      -1.91385889       5.76408625       0.51786095       0.48423743       0.09226680      -0.15907457       1.52894902       1.10241270
C        9.07750000      10.24550000      13.53758000      -0.61315000       0.97942000      -0.86644000      -1.04063591       1.30375441      -1.30979509      -2.35093832       0.16004157       3.42566442      -0.43339884       1.00029016      -0.53542286      -0.49855733       0.98568404       0.74918318
C        6.55798000       9.37664000       9.43570000       0.62089000      -1.88779000       2.05993000       0.90003733      -2.29191575       2.63088767      -1.59210920      -2.42173791      -1.52438211       0.52103877      -1.62908626       1.79001200       1.00834966      -2.56251645       1.99601114
C        6.91082000       8.52130000      10.57980000      -1.34024000       0.94955000      -2.05416000      -1.48876714       1.35988591      -2.63711733      -1.87276793      -1.73893452      -1.28333116      -1.16201198       0.60374331      -1.86109424      -1.17417490       0.46540913      -2.58271027