63
Properties=species:S:1:pos:R:3:castep_forces:R:3:spice_forces:R:3:maceoff24_forces:R:3:gomace_forces:R:3:maceoff23_forces:R:3 castep_energy=-9908.959920844 spice_energy=-64332.004111670976 maceoff24_energy=-64329.3984375 gomace_energy=-9907.765625 maceoff23_energy=-64328.0625 pbc="F F F"
H       10.38102000      10.78370000      10.36722000      -0.34598000      -1.36773000       1.93476000      -0.48554828      -1.69322414       2.32612043      -1.20360827      -3.73031330       1.66684997      -0.22899543      -1.29879284       1.74428093       0.29932848      -0.76904136       2.99819231
H        9.42568000       9.68454000      10.42870000      -0.68820000      -0.85690000      -0.09501000      -0.24933266      -0.59526944       0.45148950       1.62541986       0.33297154       1.14558601      -0.65665925      -0.99295229      -0.14230418      -1.28577399      -1.77993608       0.41684771
C       12.31422000      12.63636000       9.30210000       1.46264000      -2.10355000       1.81445000       1.15643999      -2.13387038       2.42117915      -0.51508260      -1.43211925       3.16137719       1.59793186      -2.18283033       1.66052330       1.00302112      -2.30225945       3.13230085
C       11.68528000      12.93802000      10.54260000       0.37062000       0.38427000      -1.08028000       0.55250058       0.30006284      -1.81581205       1.56229818       0.09441507      -2.89432859       0.36171857       0.53254086      -0.84202945       0.78831267       0.15765727      -2.62700319
C       11.62802000      12.59224000       8.05892000      -1.04245000       0.48418000      -0.04173000      -1.73799546       0.64679635       0.15288813      -2.87652397       1.06280255       0.66726911      -0.78027356       0.40246844      -0.10125053      -2.21521568       0.78268677       0.20964110
C       10.27268000      12.99738000       8.14400000      -1.10700000      -0.03538000      -1.20129000      -0.57965903      -0.19104530      -1.19889796       0.86042792      -0.77984595      -0.91336340      -1.36067724       0.03223246      -1.15824771      -0.12183815      -0.48617977      -1.37881958
C       13.08524000      10.71094000       8.02414000      -0.29903000       0.23516000       0.92160000      -0.46610783      -0.38469089       0.95564817      -0.82006824      -2.02941275       1.26360607      -0.16788077       0.43832439       1.03904092      -0.35130322      -0.97217578       1.06007648
C       13.12108000       9.28252000       8.07028000      -0.70624000       0.58006000       0.90612000      -0.83747552       1.20443436       1.02862641      -1.54110444       2.99555850       0.41997480      -0.62788981       0.41096896       0.82893485      -0.98881906       1.83936071       1.06039584
C       13.24938000      11.43834000       9.32228000      -0.29933000      -0.40149000      -0.83223000      -0.21261192      -0.88101557      -0.25086716       0.32261348      -1.71447933       0.10464329      -0.25819439      -0.33708510      -1.07944715      -0.22678125      -1.01699388      -0.04290107
C       13.52610000      10.67194000      10.48084000      -1.57139000       3.16027000       0.92007000      -1.92840742       3.78780161       0.34417568      -1.76322865       3.37793469      -2.01565433      -1.46959472       2.85768366       1.19563389      -1.97990143       4.04954243       0.00087437
C       12.09198000      11.45922000       7.20246000      -0.60514000       0.28677000       1.93630000      -1.10531929      -0.13088382       1.85276007      -2.07126451      -1.94107652       0.87531483      -0.54628265       0.52094948       1.80458653      -1.67719436      -0.31095046       1.79374731
C       11.05620000      10.76542000       6.56700000      -0.53800000      -0.03584000      -0.27849000      -0.01519120       0.18131743       0.10773663       1.51162624       0.63568342       1.12239885      -0.58715844      -0.00075597      -0.44748688       0.44410095       0.39811182       0.24388498
C       10.31794000      13.49158000      10.55742000       0.78732000      -1.02986000      -0.63986000       0.60213270      -1.26423746      -1.14619893      -0.68267441      -1.25879741      -2.38053846       0.82998610      -0.90960473      -0.49959224       0.23165125      -1.39092553      -1.78617918
C        9.58370000      13.42580000       9.36486000       1.64433000       0.61522000      -0.84884000       2.02333895       0.56046815      -0.45253361       2.77861404       0.68175316       0.57661903       1.58030069       0.62452501      -0.91980612       2.41907597       0.39098817       0.06424055
C        9.69440000      13.03614000      11.74596000       0.73820000      -1.41058000       2.18057000       0.21301691      -1.85070527       2.23451313      -0.62833804      -1.67102766       1.49233150       1.02984524      -1.24964190       2.25372624      -0.02377158      -2.10783577       2.45301032
C        8.39294000      12.53718000      11.76882000      -0.13467000       0.52167000      -0.18308000       0.49746438       0.78299696      -0.28590061       0.71328545       1.12749791      -0.92236948      -0.42239651       0.43339556      -0.31038487       0.64367044       0.95479906      -0.47153673
C       11.95080000      12.11182000      11.74382000      -4.00164000       5.90581000      -0.52100000      -3.80984979       5.58323450      -0.45171219      -1.82271731       4.04512167      -0.25595522      -3.95807743       6.11901093      -0.56823266      -3.16703320       5.13588858      -0.34552038
C       12.80870000      11.13092000      11.74676000       2.78022000      -4.16766000      -0.39876000       2.33218292      -3.86633288      -0.44981976       1.17079258      -2.28600574      -0.02029574       2.85639715      -4.26321793      -0.43405151       1.71771610      -3.48181224      -0.58590114
C       10.68436000      12.27610000      12.53092000       0.96103000      -2.15132000       0.42844000       0.91053952      -2.87609055       0.72714506       0.36797693      -2.69350600       1.26656461       0.88977957      -1.89594042       0.43442452       0.73478919      -3.28403544       1.25753736
C       10.33722000      11.09080000      13.26678000      -0.60401000       1.75723000       0.33417000      -0.48740508       2.33175332      -0.02744454       0.75639212       3.41756320       0.71110642      -0.38902572       1.61697936       0.62698495      -0.00952035       2.39208674      -0.66285914
C        8.19242000      13.05026000       9.31064000       1.02238000       0.95908000       1.45446000       0.97318727       0.81626117       2.13734293      -0.00832343      -0.27458191       2.73565292       1.15243316       0.99473870       1.24443829       0.82906139       0.81215775       2.35399914
C        7.67936000      12.60734000      10.51758000      -2.68889000      -1.98219000       1.66444000      -2.54664540      -2.00202794       1.23475607      -0.71573222      -0.34120500      -0.05923842      -2.83085012      -2.09097910       1.96053910      -2.34840345      -1.91442370       0.98428422
C        7.93364000      12.43974000       8.07576000       0.15171000      -3.18703000      -1.56988000      -0.03227393      -4.02619415      -1.64153093      -0.28289890      -4.84378672      -1.19967389       0.09282881      -2.83319616      -1.50534725      -0.24524832      -4.25626945      -1.62351251
C        7.14758000      11.22670000       8.14330000       0.26007000       0.10655000       0.27889000       0.69365259       0.58121200       0.26664386       1.65138626       1.35466349       0.20016932       0.11711335      -0.06977636       0.15164179       0.88330477       0.80680943       0.25022411
C        9.22888000      12.36144000       7.29846000       0.13438000      -0.17081000       1.14526000       0.21708885      -0.81939175       0.96121464       0.80644572      -2.41546249       0.13573718       0.09970602      -0.03455737       1.03514254       0.39529923      -1.23486328       0.69732738
C        9.61224000      11.19512000       6.59876000       0.23218000       1.02035000       0.38767000      -0.05531602       1.60007778       0.79613825      -0.79860729       2.56047940       1.94343376       0.36779311       0.97316325       0.24695247      -0.22377622       1.99858844       1.11196125
C        6.70058000      11.43582000      10.61626000       0.67739000       0.75154000      -1.93540000       0.68951216       0.39964519      -2.62919749      -0.00252771      -1.68494701      -3.58313251       0.63294184       0.92698097      -1.77590644       0.52981746      -0.01477017      -3.00637245
C        6.49322000      10.74832000       9.40422000       0.50587000       0.06957000      -0.55917000       0.69071733       0.31445743       0.01062406       1.53965914       0.73056221       1.86644685       0.35991752       0.04549167      -0.63718945       0.87889814       0.51342344       0.40975034
C        6.87206000      10.69004000      11.82630000       2.07071000       1.08466000       1.58153000       2.35097218       0.53822243       1.63155414       1.61938035      -1.51301444       0.69905192       1.95214570       1.22137547       1.62628496       2.33042741      -0.00461417       1.61112225
C        6.94192000       9.29516000      11.89718000       0.12262000      -1.07497000      -0.95276000       0.19096189      -0.54375403      -1.15677535       0.04405308       1.12413383      -1.57274520       0.01658261      -1.15975010      -0.89600122       0.19629049       0.07334816      -1.37408388
C        7.94714000      11.39260000      12.57524000       0.79975000      -0.16025000       0.51031000       1.31491093      -0.54680748       0.84736726       1.75919461      -1.41007400       1.61594987       0.62231350      -0.03238556       0.49272329       1.94771457      -0.78047889       1.22566903
C        8.91008000      10.68942000      13.39762000       0.18650000       0.11983000      -1.07245000      -0.17429800       0.36802944      -1.60631619      -1.85306859       0.26538491      -1.88996983       0.17744833       0.12931767      -0.85599017      -0.68876582       0.42004806      -1.72087824
C        6.48518000       9.29200000       9.40042000       1.17260000      -0.96496000       0.60828000       1.51298466      -1.24011926       1.03698424       1.78695500      -1.37943149       2.43709540       1.01348686      -0.89100260       0.49750853       1.65990829      -1.37890244       1.44517350
C        6.79228000       8.57342000      10.64456000      -1.04822000       1.30641000      -1.44800000      -1.14455778       1.67885483      -1.93064874      -0.97034347       2.26889420      -2.57646322      -0.92960763       1.18411231      -1.30965674      -1.16406345       1.97691607      -2.49816895
C        7.14250000       8.83406000       8.13440000      -0.92325000       2.02079000       1.41171000      -0.53107320       1.62215160       1.69387840       0.63874805       0.56257546       1.77217174      -1.05290151       2.09193802       1.30450368      -0.23260969       1.28741884       1.81398964
C        7.98916000       7.77662000       8.19878000       2.44149000      -0.89336000      -1.80086000       2.23130582      -0.35317417      -1.87486874       0.75548303       0.86787629      -1.00035369       2.48326707      -1.19990444      -1.83271241       2.01650500      -0.03404263      -1.93873239
C        7.58520000      10.03396000       7.43354000      -0.98162000       0.36482000      -0.35491000      -0.44512294       0.44626360      -0.71860942       0.27772146       0.84867674      -0.78718078      -1.18039930       0.38728753      -0.11579585      -0.19776827       0.54563826      -0.77902412
C        8.73410000      10.03874000       6.65340000       1.88826000       0.45532000      -0.38462000       1.51669778       0.62005379       0.03628887       0.92799705       0.35961181       1.10563540       2.16295195       0.32722425      -0.56241632       1.37184119       0.48059916       0.20898718
C        7.67928000       7.44688000      10.64128000      -0.75810000      -0.51270000      -1.66688000      -0.52673051      -0.61706534      -2.37566092      -0.29854608      -0.28604579      -2.92170191      -0.85919625      -0.37322485      -1.39453375      -0.34069023      -0.61704236      -2.77916956
C        8.22294000       7.06804000       9.39190000       1.69811000      -1.30550000       2.27802000       1.57082947      -1.14447451       2.97020493       0.81699860      -0.05852866       3.41771555       1.73335850      -1.42529881       1.96213198       1.73346341      -1.22535086       3.39518976
C        8.37498000       7.34330000      11.88644000      -0.33471000       1.61740000       0.81433000       0.34042712       1.61777144       0.87560717       1.22220302       0.81654036       0.33189034      -0.53989303       1.68070567       0.77618563       0.61137056       1.57966268       0.76083273
C        9.71330000       6.98536000      11.93388000       0.27039000      -2.68028000      -2.96391000      -0.35936955      -2.57229935      -3.26484227      -1.14923024      -1.54180455      -1.93252635       0.62200302      -2.70497918      -2.93010712      -0.64221215      -2.39508104      -3.33600450
C        7.94286000       8.53620000      12.66170000       0.71248000       0.49979000       0.84508000       1.26342998       0.89463666       1.23843937       1.68785632       1.59949338       2.39571238       0.61193883       0.41970444       0.76799792       1.84605026       1.13933659       1.64534307
C        8.88070000       9.22454000      13.49246000       1.82643000      -0.50143000      -1.79727000       1.60930972      -0.81903935      -2.39298309      -0.40937471      -0.99478608      -3.00157619       1.90301836      -0.59280014      -1.57543659       1.14977705      -0.86034679      -2.68477011
C        9.63718000       6.58894000       9.45064000       0.56577000       0.88779000      -0.23425000       0.93798791       1.00455665       0.29765513       1.92030704       0.94099784       2.47766900       0.46463919       0.75410116      -0.30519640       1.03750563       0.94006503       0.94421113
C       10.39940000       6.49510000      10.66016000      -1.13973000       0.94192000      -0.89430000      -1.55568149       1.13129776      -1.48560838      -2.17634439       1.32391584      -2.83358240      -1.22800541       0.82895690      -0.76808608      -1.79386342       1.28372216      -2.05006862
C       10.28254000       7.13290000       8.22490000      -0.64833000      -1.67242000       0.43710000      -0.03415722      -1.55600843       0.44691250       0.94400626      -0.74519008      -0.26380104      -0.94737715      -1.66949236       0.28179461       0.16720265      -1.35611784       0.09367675
C       11.62238000       7.45182000       8.15376000       1.14844000       0.79219000       0.61458000       0.57117531       0.75939263       0.69827245      -0.34341794       1.16809523       1.16845441       1.45661616       0.83080995       0.72297782       0.38383573       0.78214318       1.11421454
C        9.31054000       7.77702000       7.40396000      -1.37913000       1.47966000       0.42035000      -1.29871662       2.15139881       0.17062515       0.11598174       3.20005322      -0.15373886      -1.40893126       1.12780213       0.57168496      -1.03709948       2.26452541       0.08255339
C        9.67440000       8.93794000       6.65466000      -0.32508000      -2.81120000       0.67993000      -0.42937567      -3.59666428       1.15992908      -0.85989720      -3.40871358       1.70335627      -0.34761655      -2.57385230       0.59255636      -0.60521382      -3.75826788       1.27291620
C       11.83736000       6.91050000      10.65800000      -1.36776000      -0.25747000      -2.88210000      -1.28290704       0.00135970      -3.49816917      -0.27062643       1.16577494      -2.32134724      -1.45844054      -0.31396562      -2.41516590      -1.32766175       0.12059087      -3.27892876
C       12.44668000       7.38582000       9.37296000      -1.16442000      -0.37586000       1.97846000      -1.51070476      -0.43848490       2.62989932      -1.45777726      -0.12400770       2.61439323      -1.00572610      -0.29491305       1.52754259      -1.65443420      -0.44030249       2.35510635
C       12.02914000       7.55788000      11.88324000       0.91034000       2.78672000       0.66363000       1.13309366       3.48383147       0.61067791       2.04794002       2.52420759      -1.96074104       0.95944667       2.48171282       0.56535846       1.26780355       3.44776440       0.15063155
C       12.90500000       8.74906000      11.80376000      -1.33452000       0.37651000       0.21159000      -1.70684938      -0.01706697       0.00081325      -2.18351340       0.08675528       0.75279748      -1.11898696       0.58201635       0.36174744      -2.04321933       0.19147760       0.43641394
C       10.70564000       7.57352000      12.68742000       3.17074000       1.97679000       0.44775000       3.29427585       2.69808345       0.77375025       0.43538144       3.04528666       1.62984335       2.98299074       1.80351067       0.34929520       3.08242655       3.27350712       1.02477801
C       10.40008000       8.73804000      13.38502000      -1.81714000       1.81719000       0.79584000      -1.91047563       1.39990490       0.34594442      -0.51830608      -0.91034341      -0.35367453      -1.88172317       1.90321910       1.12303865      -1.69460368       1.31705785       0.03947061
C       13.32610000       8.54016000       9.40672000      -0.90131000      -0.75456000      -4.57249000      -0.94461979      -0.37788250      -4.31786170      -1.17147493       0.23078036      -2.05721331      -0.85793519      -0.79392421      -4.64165163      -1.06910408       0.06668314      -4.07793188
C       13.54200000       9.27410000      10.50148000      -0.58319000      -1.65029000       3.83674000      -0.87694866      -2.28202594       3.61358114      -1.00761127      -2.37751579       1.12235999      -0.45983815      -1.42414117       3.82485080      -1.00475144      -2.49798346       3.07320237
C       12.04494000       8.63026000       7.36600000      -0.25427000      -0.97938000      -0.08082000      -0.70342590      -0.72392011      -0.29212624      -1.12872720       0.61127412      -1.10639417      -0.17977007      -1.01521981      -0.03638053      -1.13683891      -0.51849532      -0.60293853
C       11.09726000       9.32226000       6.56612000      -1.32804000       0.10175000       0.86979000      -1.08090082      -0.07214953       1.30594706       0.07948577      -0.11726642       2.63562059      -1.40217733       0.08709151       0.72677028      -0.78761971      -0.36015758       1.77126527
C       12.46150000       9.94890000      12.52086000      -1.04686000      -0.61719000       0.90619000      -1.76392096      -0.55937881       1.24343743      -1.16168714      -1.78039002       1.00146139      -0.72799432      -0.74192518       0.67447060      -1.88201010      -0.99215126       1.30432701
C       11.23844000       9.95696000      13.32748000       0.55403000      -0.95115000      -0.97433000       1.08610237      -0.95799119      -1.43503415       1.11137605      -0.30693227      -1.01447845       0.19310218      -0.80293524      -0.67181647       1.04036188      -0.82406580      -1.35232580
O       10.04040000      10.08386000      11.05910000       0.70067000       1.59606000      -3.95342000       0.34684016       1.62960922      -4.93538779      -1.16536033       0.62327248      -8.24422169       0.54647315       1.39870536      -4.24405050       0.52658033       1.94327271      -5.26373863
63
Properties=species:S:1:pos:R:3:castep_forces:R:3:spice_forces:R:3:maceoff24_forces:R:3:gomace_forces:R:3:maceoff23_forces:R:3 castep_energy=-9909.942550747 spice_energy=-64333.30045857333 maceoff24_energy=-64331.3125 gomace_energy=-9908.3759765625 maceoff23_energy=-64327.91015625 pbc="F F F"
H        9.58832000      10.49652000       9.43974000      -0.19385000       1.01802000      -1.90882000      -0.03053856       0.75046186      -1.18666469       1.89630616       0.75712764      -0.36618578      -0.05666825       0.93900359      -1.85133600       0.27000028       2.53883910      -4.89491177
H        9.18906000       9.37692000      10.28304000      -0.93640000      -1.47002000       0.20972000      -0.47050388      -0.86132557       0.25419032       2.35717845       0.79334652       0.54151690      -0.79913247      -1.38977623       0.15385561      -0.70368654      -2.53059673       1.01137710
C       12.35762000      12.65520000       9.49134000      -1.22446000       0.64283000      -0.19386000      -1.56763829       0.76050495       0.32260180      -2.16381860       0.99103582       1.19401073      -1.06038690       0.64396793      -0.39664251      -1.48885202       1.16293597       0.37647879
C       11.63882000      13.13826000      10.65750000       1.71884000      -1.72294000      -1.50786000       2.09328847      -2.17251855      -2.02563401       2.53781438      -2.04755735      -2.44305754       1.81525528      -1.44041133      -1.26774108       2.43296599      -2.52208185      -2.22447634
C       11.68064000      12.67608000       8.19642000       0.57000000      -1.24712000      -0.73679000      -0.10643655      -1.31159338      -0.92011814      -1.25508952      -0.89533305      -0.51310444       0.79135895      -1.05823922      -0.81691813      -0.38689867      -0.92178315      -0.83290613
C       10.35890000      13.05722000       8.08736000      -0.28101000       1.83054000       2.02048000       0.31557164       1.67464126       2.18341408       1.40022659       0.46748686       0.95260912      -0.49520603       1.82942951       1.95444250       0.84181643       1.63302457       2.03301477
C       12.99056000      10.70086000       8.26494000       0.06049000       2.12316000      -0.34499000       0.08969159       1.50189515      -0.25721523      -0.50308764      -0.40991408      -0.38398755       0.12248164       2.31257200      -0.31397724       0.55940592       1.33841169      -0.57187688
C       13.03436000       9.34260000       8.26552000       0.33746000      -1.96269000       0.32349000       0.31858426      -1.34213581       0.46266535      -0.15475035       0.47904089       0.79597843       0.35854208      -2.08051634       0.16713363       0.61223018      -1.23364770       0.34347239
C       13.16304000      11.45328000       9.49392000      -0.39707000       0.29427000       0.43453000      -0.53375492       0.00002096       0.94898288      -0.58591962      -0.68528265       1.72774518      -0.33847064       0.38312131       0.28048715      -0.48625159      -0.00502175       1.03187656
C       13.24286000      10.75060000      10.68908000       1.22870000      -0.61364000       0.68914000       1.20287875      -0.39475999       0.36369135       0.90434790      -0.66714853      -0.81247628       1.24775624      -0.71949679       0.75339884       0.96033859      -0.39985222       0.08619633
C       12.05894000      11.46410000       7.41466000       0.92680000       0.64344000       1.79135000       0.38900068       0.41700324       1.62547142      -0.69238347      -0.67291397       1.09088278       1.10644984       0.67685139       1.72624624       0.46860883       0.06441045       1.10078895
C       11.12852000      10.74310000       6.71528000       0.17764000      -1.54259000      -0.56504000       0.55658341      -1.19993096      -0.18732006       1.04720891      -0.11713326       0.72151697       0.06880945      -1.55994225      -0.72482669       1.21221614      -0.74523711      -0.46818477
C       10.21436000      13.50044000      10.56268000       3.27336000       0.62704000      -0.31962000       3.19941203       0.62946957      -0.96517343       0.73319590       0.44170594      -1.71412492       3.47938204       0.63888192      -0.10399895       3.37123060       0.34196600      -1.72333360
C        9.66402000      13.55084000       9.30196000      -2.44022000      -0.66575000      -0.15659000      -2.37417015      -0.82801651       0.52734060      -1.34219933      -0.67933381       1.89450848      -2.68394661      -0.52549809      -0.29507282      -2.23417330      -0.89760065       1.48588681
C        9.62516000      13.04484000      11.75734000      -1.86436000      -0.42028000       0.30863000      -2.68087994      -0.66762259       0.18644087      -3.60308599      -0.74122500      -1.35304356      -1.65770471      -0.30092281       0.39300755      -2.96734881      -1.44481075       0.31212354
C        8.25896000      12.66754000      11.61870000       1.39964000      -2.35685000       2.79306000       2.21313669      -2.33849522       2.93461640       3.26449251      -1.94949496       1.97368455       1.07671070      -2.29004478       2.82839108       2.01987219      -2.88958383       3.57132554
C       11.87616000      12.37820000      11.86090000       0.38041000      -2.18606000       0.93615000       0.51785713      -2.76936644       0.94683735       0.40802908      -3.19372702       1.17143726       0.34283519      -1.96421194       0.81911534       0.29584783      -3.29164743       0.72128302
C       12.65422000      11.11646000      11.91744000      -0.73238000       4.42925000       0.22137000      -1.07219888       5.10677061       0.17820482      -1.19240546       3.92018270      -0.02745777      -0.67198861       4.33213091       0.33296034      -1.68310225       5.75531292      -0.00445205
C       10.65184000      12.30382000      12.59090000      -1.81816000       0.62803000      -0.53530000      -2.00924307       0.08844475      -0.34959874      -0.91279078      -2.15662122       0.17929888      -1.90784311       0.79862136      -0.56012648      -2.49869657      -0.23210855      -0.72149456
C       10.26058000      11.15756000      13.29538000      -0.08010000       0.61316000       0.57071000       0.21232231       1.10893502       0.24489760       0.99357873       1.83984566      -1.08384466      -0.03511539       0.45160255       0.59139925      -0.09558795       1.16353321      -0.41660047
C        8.23120000      13.05968000       9.24298000       0.97065000       0.31673000       0.10122000       0.82508467      -0.00614809       0.54885563      -0.18202305      -0.22141552       0.59472489       1.05586934       0.44578075      -0.04963544       0.82097971      -0.42584798       0.37544239
C        7.53866000      12.55634000      10.35526000       2.58697000       2.48690000       1.28421000       3.08547539       2.73123576       0.90183056       3.39222574       2.33159065      -0.48565039       2.25003815       2.40092850       1.40407252       3.50305581       2.86578250       1.28571081
C        8.12090000      12.30512000       8.06358000       0.19711000      -0.88277000      -1.64485000      -0.10409006      -1.43855888      -1.67437925      -1.09556925      -1.52421224      -0.54212111       0.22122449      -0.72719419      -1.69754004      -0.72262454      -1.89465809      -1.27933347
C        7.33882000      11.13994000       8.02788000      -1.69879000      -1.71935000       0.16770000      -1.46208121      -1.33365573       0.33661231      -0.69005316       0.28041613      -0.10449243      -1.85589778      -1.81276333       0.10884696      -0.98236090      -1.07704139       0.34085229
C        9.42038000      12.33986000       7.34512000      -2.12147000      -1.59638000      -0.96026000      -2.01710676      -2.27970805      -1.25789682      -0.35126871      -1.84538829      -1.40514755      -2.06723309      -1.38433981      -1.00093365      -1.51719069      -2.73376966      -1.69245219
C        9.76252000      11.17188000       6.64450000      -0.18780000      -0.10984000       0.30848000      -0.22152315       0.43626922       0.73975562       0.18434417       1.28003311       1.25830340      -0.11629252      -0.17914593       0.10400301      -0.30584851       0.87248093       0.61656272
C        6.84604000      11.36144000      10.34744000      -2.07669000      -1.89133000       1.79000000      -2.25042271      -2.31801623       1.44381033      -1.74270105      -2.62165403       0.28893769      -1.93696404      -1.57546735       1.86510539      -2.16583538      -2.79607368       1.59687614
C        6.56560000      10.64972000       9.20376000       1.09736000       1.16153000      -0.99399000       1.44005041       1.48539574      -0.55987513       1.37969780       1.66468966       0.12097435       0.96756536       0.95466924      -1.04231596       1.62214804       1.57636726      -0.02491736
C        7.01452000      10.62296000      11.60856000       0.23283000       1.69085000       0.98669000       0.22595970       1.17787857       0.98069816       0.45928162       0.58037156       1.39410055       0.19956523       1.82917643       0.97632021       1.00890779       1.55740595       1.17283618
C        6.89026000       9.22726000      11.71892000       1.62018000       1.39657000       0.50491000       1.91986629       2.07201908       0.39745552       1.36917305       2.40970063      -0.28599256       1.41516209       1.32488239       0.43316957       2.30411077       2.82082653       0.67703390
C        7.97140000      11.41838000      12.45288000      -2.03660000       0.26777000      -1.99002000      -1.64963009      -0.16508408      -1.68612252      -0.34119150      -1.39071703      -1.07251930      -2.26248980       0.35478371      -2.07098556      -2.12977195      -0.05669706      -2.14542365
C        8.84524000      10.73988000      13.29472000       1.42037000       0.69812000      -0.79859000       1.03657220       1.05326642      -1.37798022      -0.39666414       1.36130393      -2.24911904       1.44061911       0.56951058      -0.54098594       0.96328974       1.52675009      -1.93793535