21
Lattice="30.0 0.0 0.0 0.0 30.0 0.0 0.0 0.0 30.0" Properties=species:S:1:pos:R:3:castep_forces:R:3:gomace_forces:R:3:forces:R:3 castep_energy=-3295.53529719 gomace_energy=-3295.146240234375 maceoff23_energy=-17658.664527152076 maceoff24_energy=-17658.562176202155 spice_energy=-17658.89615574659 energy=-17658.15454249757 free_energy=-17658.15454249757 stress="0.0002894985588190049 -2.9642226004514957e-05 9.54371907941475e-05 -2.9642226004514957e-05 0.0004269935617396236 -5.1830300387369496e-05 9.54371907941475e-05 -5.1830300387369496e-05 0.00042896692874583666" pbc="T T T"
H        2.79528000       0.04068000       2.36376000       1.55434000      -0.71240000      -0.44802000       1.54470408      -0.77182543      -0.40580940       0.16062040       1.96034631       0.12755210
H        3.86292000       2.29305000       1.15263000      -0.51904000       1.05324000      -0.50296000      -0.46097797       0.98007929      -0.50778079      -0.94795771      -0.07244235      -1.05829820
H        0.00276000       4.43985000       3.57714000       3.12811000      -0.92269000      -1.49372000       3.23473215      -0.96662992      -1.45993733      -3.61396374      -1.25927352      -0.08212161
H        2.84070000       4.15869000       0.00000000      -1.02419000       0.58741000       0.17601000      -0.96710664       0.65414214       0.10073110       0.45322833      -1.96947374       0.82183267
H        0.65991000       5.27967000       1.36407000      -1.85472000       2.37539000      -1.36868000      -1.84639072       2.36264658      -1.39789724      -0.71333812       2.04516126       0.23847281
H        0.56700000       0.04797000       7.00830000      -0.42252000       1.67917000       0.55493000      -0.44479540       1.86914468       0.53347594       2.81436636       1.04370808      -0.76795720
H        1.68699000       1.38675000       6.98241000       1.66194000       0.56213000       0.29564000       2.26766372       0.69559932       0.63001072      -2.35760810       0.10709744      -2.23847268
H        0.00000000       2.06844000       7.12155000       1.60023000      -2.97832000      -1.89554000       1.46808577      -2.89474249      -1.62057376      -0.15080322       0.78544104      -0.66137130
C        3.03993000       2.89053000       1.63080000       2.01900000       1.06283000      -4.65973000       2.13254046       1.03407717      -4.57056999       0.56805925      -0.92832694       1.78367618
C        1.07877000       4.08315000       2.96970000      -5.06451000       0.23020000       3.68047000      -5.22327518       0.33927038       3.53435516       2.73081546       1.94166904      -2.38307888
C        2.37264000       3.96513000       0.98016000      -0.63956000      -1.08278000       1.18425000      -0.81470180      -0.99153274       1.19444931       0.07746736       2.13926033      -1.40242804
C        1.20456000       4.49976000       1.70712000       5.38993000      -1.66069000      -2.12887000       5.32141972      -1.67419219      -2.10305166       0.38261817      -3.01940475       0.71297645
C        0.73044000       1.13043000       6.63363000      -1.94271000      -0.68474000       2.49221000      -2.32338405      -0.93594521       2.45999050      -1.68320044      -1.70402914       5.90729774
C        2.85579000       2.41584000       2.83962000      -2.56346000      -0.37299000       3.53873000      -2.65251112      -0.40282726       3.50272918       1.73154149       2.02191919       0.68659167
C        1.71363000       2.99952000       3.54750000       0.72585000      -2.75174000       0.73123000       1.05393338      -3.02798557       1.22074962       0.62494171      -5.31264806       2.13137465
C        3.67908000       1.32513000       3.37305000      -0.80297000      -2.29735000       0.36933000      -0.76180267      -2.57846785       0.65077460      -0.65560471       0.04013427      -2.58096634
C        0.71766000       0.79719000       5.22357000       1.01721000       6.56170000       1.48219000       1.00719023       5.84624004       1.61320245       5.12872692       1.24971788      -7.90236783
O        4.05045000       1.28997000       4.50990000       0.93754000       0.24540000       0.77211000       0.95426273       0.43010178       0.60108548      -1.28482609       0.07213317      -1.01138397
O        0.13497000       0.06300000       4.59114000      -1.50310000      -3.53604000      -3.34094000      -1.59739101      -3.44631195      -3.60851574      -3.90228476      -0.69649426       5.00149997
O        3.78717000       0.00000000       2.58438000      -2.14789000       2.75401000       0.47400000      -2.21100068       2.93984413       0.37368768      -0.03132030      -0.31302901       2.16781001
O        1.13325000       2.40138000       4.63524000       0.45049000      -0.11172000       0.08737000       0.31880492       0.53931558      -0.74110568       0.66852171       1.86853377       0.50936179
21
Lattice="30.0 0.0 0.0 0.0 30.0 0.0 0.0 0.0 30.0" Properties=species:S:1:pos:R:3:castep_forces:R:3:gomace_forces:R:3:forces:R:3 castep_energy=-3295.6852445 gomace_energy=-3295.292724609375 maceoff23_energy=-17659.113388992093 maceoff24_energy=-17659.135409102953 spice_energy=-17659.121227664094 energy=-17658.15454249757 free_energy=-17658.15454249757 stress="0.0002894985588190049 -2.9642226004514957e-05 9.54371907941475e-05 -2.9642226004514957e-05 0.0004269935617396236 -5.1830300387369496e-05 9.54371907941475e-05 -5.1830300387369496e-05 0.00042896692874583666" pbc="T T T"
H        4.20600000       0.00000000       4.03278000      -1.91976000      -3.17433000      -1.00024000      -2.01538205      -3.15337181      -0.95676053       0.16062040       1.96034631       0.12755210
H        5.66325000       2.73519000       0.79968000      -2.24968000       1.92585000       1.58043000      -2.31594038       1.92226720       1.65004516      -0.94795771      -0.07244235      -1.05829820
H        1.52568000       4.81839000       2.92524000       2.03376000       0.21970000       0.51450000       2.01426601       0.22156242       0.52130294      -3.61396374      -1.25927352      -0.08212161
H        4.40502000       5.19762000       0.00000000       1.44805000       0.49188000      -2.32249000       1.42703950       0.47155011      -2.23699808       0.45322833      -1.96947374       0.82183267
H        2.95287000       6.31353000       1.34772000      -0.72543000       0.03419000      -0.58411000      -0.71200329       0.00684583      -0.51813871      -0.71333812       2.04516126       0.23847281
H        0.00000000       3.13887000       5.60247000       0.99307000      -1.88057000      -1.18320000       1.11030364      -2.00080061      -1.07593215       2.81436636       1.04370808      -0.76795720
H        0.58158000       1.22817000       4.92957000       0.18855000       2.63053000       0.18577000       0.35268563       2.70356083       0.28104663      -2.35760810       0.10709744      -2.23847268
H        0.54327000       1.82463000       6.53916000       0.75804000       0.22531000       0.37849000       0.77057791       0.26904339       0.81513226      -0.15080322       0.78544104      -0.66137130
C        4.82493000       3.41124000       1.40637000       3.29906000       2.67098000      -4.20768000       3.25136495       2.69021797      -4.28917885       0.56805925      -0.92832694       1.78367618
C        2.67645000       4.69155000       2.77911000      -3.88553000       2.40101000      -3.15664000      -3.95545101       2.71410441      -3.34626913       2.73081546       1.94166904      -2.38307888
C        4.34415000       4.71765000       0.91083000      -3.01749000      -2.16219000       3.27764000      -3.14694595      -2.17529917       3.26115704       0.07746736       2.13926033      -1.40242804
C        3.17109000       5.27337000       1.56177000       3.04727000      -0.28474000       1.29246000       3.13421512      -0.29948580       1.19825161       0.38261817      -3.01940475       0.71297645
C        0.76023000       2.22852000       5.53401000      -0.64739000       0.32641000       1.81568000      -1.06424403       0.28950310       1.05108654      -1.68320044      -1.70402914       5.90729774
C        4.49535000       3.08985000       2.66622000      -1.97202000      -4.56802000       2.14860000      -2.06960535      -4.54325294       2.35633993       1.73154149       2.02191919       0.68659167
C        3.23838000       3.56451000       3.13305000       0.85828000      -3.78558000       3.81045000       1.10623264      -3.94075441       3.80103374       0.62494171      -5.31264806       2.13137465
C        4.81074000       1.48158000       2.91912000       0.10087000      -1.39147000      -2.51914000       0.10969162      -1.55910289      -2.57058072      -0.65560471       0.04013427      -2.58096634
C        2.18811000       2.93820000       5.38680000      -1.27345000      -1.89801000      -1.02616000      -1.20082998      -1.83868492      -0.60834855       5.12872692       1.24971788      -7.90236783
O        5.05248000       0.87618000       1.84245000      -0.47894000       0.80599000       2.92740000      -0.49272805       0.96759760       3.16882706      -1.28482609       0.07213317      -1.01138397
O        2.94477000       3.51660000       6.12834000      -0.72741000      -0.04448000      -0.26821000      -0.64056641      -0.08349878      -0.30500785      -3.90228476      -0.69649426       5.00149997
O        4.73604000       0.73845000       4.14261000       2.06577000       5.57345000      -0.34648000       2.14405560       5.58198738      -0.51430142      -0.03132030      -0.31302901       2.16781001
O        2.36670000       2.65617000       4.02735000       2.10439000       1.88409000      -1.31703000       2.19326401       1.75601101      -1.68270779       0.66852171       1.86853377       0.50936179
21
Lattice="30.0 0.0 0.0 0.0 30.0 0.0 0.0 0.0 30.0" Properties=species:S:1:pos:R:3:castep_forces:R:3:gomace_forces:R:3:forces:R:3 castep_energy=-3296.373568652 gomace_energy=-3295.98486328125 maceoff23_energy=-17660.183281452893 maceoff24_energy=-17660.18869531089 spice_energy=-17660.16671225626 energy=-17658.15454249757 free_energy=-17658.15454249757 stress="0.0002894985588190049 -2.9642226004514957e-05 9.54371907941475e-05 -2.9642226004514957e-05 0.0004269935617396236 -5.1830300387369496e-05 9.54371907941475e-05 -5.1830300387369496e-05 0.00042896692874583666" pbc="T T T"
H        3.98604000       1.48527000       4.69440000      -0.46139000       0.09247000      -0.01919000      -0.30731487       0.05915022      -0.16593584       0.16062040       1.96034631       0.12755210
H        6.48000000       2.70078000       1.28241000       2.08381000      -1.40494000       0.15871000       2.03147244      -1.47194934       0.15458971      -0.94795771      -0.07244235      -1.05829820
H        2.21121000       5.01918000       2.11923000      -0.67571000      -0.73217000       0.09381000      -0.69519502      -0.76376396       0.06546098      -3.61396374      -1.25927352      -0.08212161
H        5.91966000       4.87308000       0.00000000      -1.51340000      -1.73688000       2.70215000      -1.57171726      -1.80683124       2.79332256       0.45322833      -1.96947374       0.82183267
H        3.80880000       5.85642000       0.80832000      -0.69237000      -0.15473000      -0.99462000      -0.74341744      -0.19324723      -0.94106996      -0.71333812       2.04516126       0.23847281
H        0.00000000       1.01364000       3.29043000      -0.52310000      -0.17640000       1.58628000      -1.15692413      -0.10605046       1.62750292       2.81436636       1.04370808      -0.76795720
H        0.97113000       1.71123000       2.19993000       1.29587000      -1.29260000       1.60834000       1.46870041      -1.05697155       1.58261967      -2.35760810       0.10709744      -2.23847268
H        1.42218000       0.00000000       2.97417000      -0.23607000       1.58979000       0.22107000      -0.04974973       1.57029569       0.24227768      -0.15080322       0.78544104      -0.66137130
C        5.57178000       3.11517000       1.53477000      -2.93914000       2.46350000       1.17883000      -2.93601894       2.46976328       1.15949380       0.56805925      -0.92832694       1.78367618
C        2.98296000       4.28988000       1.85370000      -1.43866000      -1.13669000       3.67140000      -1.39484608      -0.97323263       3.44450951       2.73081546       1.94166904      -2.38307888
C        5.25210000       4.30878000       0.90825000      -1.16249000       0.86515000      -3.44331000      -0.90691453       0.97740352      -3.61756277       0.07746736       2.13926033      -1.40242804
C        3.85752000       4.78035000       1.00251000       5.35240000       2.10799000      -1.01070000       5.23922014       2.12107086      -0.86682427       0.38261817      -3.01940475       0.71297645
C        1.07607000       1.07772000       3.21507000      -0.25169000      -0.96658000      -5.29449000      -0.32191813      -1.66204906      -5.87472677      -1.68320044      -1.70402914       5.90729774
C        4.69698000       2.68518000       2.62323000       1.10025000       0.15692000      -1.23475000       1.12798178       0.15240516      -1.26822245       1.73154149       2.02191919       0.68659167
C        3.38619000       3.26691000       2.81466000       3.14790000      -0.18018000      -4.61376000       3.25137281      -0.35806468      -4.04464340       0.62494171      -5.31264806       2.13137465
C        5.42319000       1.66836000       3.51648000      -3.86744000       3.52609000      -2.28858000      -4.05816746       3.46007681      -2.01809883      -0.65560471       0.04013427      -2.58096634
C        1.85223000       1.73475000       4.22910000      -0.95150000       2.10060000      -0.22829000      -1.30381942       1.90292037      -0.14926302       5.12872692       1.24971788      -7.90236783
O        6.56625000       1.52856000       3.60009000       6.34694000      -0.48434000      -0.59789000       6.33333921      -0.34396720      -0.71142554      -1.28482609       0.07213317      -1.01138397
O        1.62291000       1.66182000       5.39208000       0.72193000      -0.32159000       1.41051000       1.14084411      -0.04184636       1.99091721      -3.90228476      -0.69649426       5.00149997
O        4.64439000       0.94902000       4.22208000      -3.01872000      -3.29525000       3.31672000      -3.17360663      -3.15995359       3.27753735      -0.03132030      -0.31302901       2.16781001
O        2.63610000       2.93793000       3.80016000      -2.31741000      -1.02016000       3.77774000      -1.97332072      -0.77515811       3.31954098       0.66852171       1.86853377       0.50936179
21
Lattice="30.0 0.0 0.0 0.0 30.0 0.0 0.0 0.0 30.0" Properties=species:S:1:pos:R:3:castep_forces:R:3:gomace_forces:R:3:forces:R:3 castep_energy=-3296.120117594 gomace_energy=-3295.7822265625 maceoff23_energy=-17659.708709150713 maceoff24_energy=-17659.699508200487 spice_energy=-17659.72725851163 energy=-17658.15454249757 free_energy=-17658.15454249757 stress="0.0002894985588190049 -2.9642226004514957e-05 9.54371907941475e-05 -2.9642226004514957e-05 0.0004269935617396236 -5.1830300387369496e-05 9.54371907941475e-05 -5.1830300387369496e-05 0.00042896692874583666" pbc="T T T"
H        3.56034000       2.13024000       5.04456000       1.15772000      -0.30564000      -0.23840000       0.97593468      -0.35869956      -0.17460422       0.16062040       1.96034631       0.12755210
H        5.69916000       4.04736000       2.21739000      -0.18857000       0.69913000      -0.98269000      -0.25951940       0.69282627      -1.03561175      -0.94795771      -0.07244235      -1.05829820
H        0.88137000       3.57468000       1.72917000      -0.02068000      -0.36838000       0.47839000       0.06408988      -0.44797948       0.57656479      -3.61396374      -1.25927352      -0.08212161
H        4.73907000       4.33728000       0.00783000       0.96576000       0.36090000      -2.31527000       1.01027822       0.44517362      -2.43490386       0.45322833      -1.96947374       0.82183267
H        2.22606000       4.23921000       0.00000000       0.14748000      -0.31049000      -0.58407000       0.19537744      -0.40673381      -0.40919462      -0.71333812       2.04516126       0.23847281
H        0.50466000       0.07698000       5.89893000      -0.18160000      -0.53991000      -1.07110000      -0.55444735      -0.61272091      -0.95702374       2.81436636       1.04370808      -0.76795720
H        2.25129000       0.00000000       5.55123000       0.12620000       0.55126000       0.30607000       0.27031660       0.51926190       0.17358185      -2.35760810       0.10709744      -2.23847268
H        1.21494000       1.39644000       6.51549000       1.43574000      -1.06190000      -2.23166000       1.38288522      -1.05379927      -2.22703743      -0.15080322       0.78544104      -0.66137130
C        4.61157000       3.99822000       1.94895000       6.22181000      -1.54873000       7.70458000       6.21941280      -1.55422950       7.79886532       0.56805925      -0.92832694       1.78367618
C        1.95174000       3.46704000       1.88058000       4.02874000       0.09950000       0.74227000       3.97967124       0.15709130       0.53936720       2.73081546       1.94166904      -2.38307888
C        4.17978000       3.88611000       0.74679000      -2.21565000       0.84009000      -1.18551000      -2.18934727       0.79492790      -1.44520354       0.07746736       2.13926033      -1.40242804
C        2.82138000       3.83493000       0.82467000      -5.24631000       0.10258000      -1.57081000      -5.21218824       0.10823002      -1.43635786       0.38261817      -3.01940475       0.71297645
C        1.37004000       0.65772000       5.55066000      -0.52078000       0.50372000       2.62854000       0.23209238       0.28585044       3.15005279      -1.68320044      -1.70402914       5.90729774
C        4.08450000       3.53235000       3.19752000      -0.51100000      -2.13547000      -0.07112000      -0.51840198      -2.33710957       0.30354342       1.73154149       2.02191919       0.68659167
C        2.74656000       3.11928000       3.09471000      -2.08680000       0.71569000      -2.39283000      -1.95418501       0.64905888      -1.96336579       0.62494171      -5.31264806       2.13137465
C        5.22015000       2.67768000       4.24467000      -2.88839000       2.28071000      -2.42665000      -2.71336031       2.30760074      -2.39621472      -0.65560471       0.04013427      -2.58096634
C        1.08702000       1.43388000       4.30614000       1.58719000       1.74281000       2.20274000       0.81863779       1.55068004       2.31336474       5.12872692       1.24971788      -7.90236783
O        6.38199000       2.81262000       3.97389000       0.28924000      -0.71836000       0.95940000      -0.15059197      -0.64883327       0.83808172      -1.28482609       0.07213317      -1.01138397
O        0.00000000       1.65369000       3.93834000      -2.81374000       0.00027000      -2.25588000      -2.75034428       0.29420975      -2.74014068      -3.90228476      -0.69649426       5.00149997
O        4.56078000       1.89768000       5.11716000       0.00335000       0.40261000       0.16470000       0.06693092       0.51313913      -0.05400237      -0.03132030      -0.31302901       2.16781001
O        2.15352000       2.42907000       4.09815000       0.71028000      -1.31038000       2.13931000       1.08675909      -0.89794427       1.58023858       0.66852171       1.86853377       0.50936179
21
Lattice="30.0 0.0 0.0 0.0 30.0 0.0 0.0 0.0 30.0" Properties=species:S:1:pos:R:3:castep_forces:R:3:gomace_forces:R:3:forces:R:3 castep_energy=-3294.567407733 gomace_energy=-3294.21044921875 maceoff23_energy=-17657.726437675236 maceoff24_energy=-17657.73040270147 spice_energy=-17657.717304837075 energy=-17658.15454249757 free_energy=-17658.15454249757 stress="0.0002894985588190049 -2.9642226004514957e-05 9.54371907941475e-05 -2.9642226004514957e-05 0.0004269935617396236 -5.1830300387369496e-05 9.54371907941475e-05 -5.1830300387369496e-05 0.00042896692874583666" pbc="T T T"
H        6.98031000       2.62092000       5.00763000      -1.88612000      -0.47952000      -2.22935000      -1.90815723      -0.47086966      -2.17787290       0.16062040       1.96034631       0.12755210
H        6.48087000       1.45812000       2.01042000      -0.78364000       0.64457000       0.18714000      -0.78320813       0.59764785       0.15862030      -0.94795771      -0.07244235      -1.05829820
H        1.54563000       1.15398000       1.85511000      -5.12341000      -0.95855000      -0.09494000      -5.26659966      -0.91525435      -0.00299881      -3.61396374      -1.25927352      -0.08212161
H        5.35635000       0.00000000       0.59595000       1.72109000      -2.65001000      -2.04725000       1.67889094      -2.65151215      -2.04223633       0.45322833      -1.96947374       0.82183267
H        2.87904000       0.42393000       0.00000000      -1.98733000      -1.82254000      -2.68503000      -1.97913635      -1.78911042      -2.72581530      -0.71333812       2.04516126       0.23847281
H        1.39146000       1.81335000       6.63720000      -1.18955000       0.96532000      -0.92799000      -1.04425335       0.85184526      -0.47716689       2.81436636       1.04370808      -0.76795720
H        0.40137000       3.06354000       5.62614000      -1.21410000      -1.23067000       1.37504000      -1.17334104      -1.39042091       1.46892905      -2.35760810       0.10709744      -2.23847268
H        0.00000000       1.04736000       6.05196000      -1.50773000       0.54737000      -0.40340000      -1.48243296       0.43369725      -0.15742363      -0.15080322       0.78544104      -0.66137130
C        5.38149000       1.59900000       1.93086000       0.94875000      -3.64123000      -5.82588000       1.04485643      -3.43917751      -5.55973911       0.56805925      -0.92832694       1.78367618
C        2.49795000       1.35510000       1.81443000       7.90055000       2.25578000       1.93592000       7.98217392       2.26850581       1.94993472       2.73081546       1.94166904      -2.38307888
C        4.75374000       0.79383000       0.75066000      -1.62193000       5.06910000       6.09682000      -1.48926473       5.00164795       6.07882214       0.07746736       2.13926033      -1.40242804
C        3.33360000       0.85959000       0.78546000       1.74059000       0.74341000       2.05024000       1.77695441       0.72883654       1.99434590       0.38261817      -3.01940475       0.71297645
C        0.55353000       1.94769000       5.81880000       4.36938000       1.88746000       0.89355000       4.18024206       2.54979467       0.58281022      -1.68320044      -1.70402914       5.90729774
C        4.60605000       2.37858000       2.66274000      -3.72764000       1.08723000       6.85007000      -3.68296790       1.13283753       6.84452438       1.73154149       2.02191919       0.68659167
C        3.21399000       2.01693000       2.96997000      -1.88193000       0.22869000      -3.38611000      -2.03902507       0.29395932      -3.27793217       0.62494171      -5.31264806       2.13137465
C        5.05908000       3.06990000       3.99327000       2.07195000       2.57054000      -2.01297000       2.22467113       2.55747271      -1.73223400      -0.65560471       0.04013427      -2.58096634
C        1.33908000       1.66668000       4.60170000       1.96726000      -1.29978000      -1.94583000       1.57129228      -1.33770466      -1.78597462       5.12872692       1.24971788      -7.90236783
O        4.60140000       4.16226000       4.43412000       2.42278000      -4.29590000      -0.47018000       2.25229883      -4.30311680      -0.64978117      -1.28482609       0.07213317      -1.01138397
O        1.14114000       0.69453000       3.93141000      -0.48308000      -0.56985000      -0.17584000      -0.25781190      -0.79658145      -0.63946402      -3.90228476      -0.69649426       5.00149997
O        6.40848000       2.30832000       4.16889000      -0.52774000       2.51753000       3.44862000      -0.70299196       2.39177918       3.08083248      -0.03132030      -0.31302901       2.16781001
O        2.57991000       2.54364000       4.16100000      -1.20817000      -1.56893000      -0.63263000      -0.90218985      -1.71427655      -0.93017995       0.66852171       1.86853377       0.50936179
21
Lattice="30.0 0.0 0.0 0.0 30.0 0.0 0.0 0.0 30.0" Properties=species:S:1:pos:R:3:castep_forces:R:3:gomace_forces:R:3:forces:R:3 castep_energy=-3296.58616083 gomace_energy=-3296.146728515625 maceoff23_energy=-17660.207081141634 maceoff24_energy=-17660.209421128395 spice_energy=-17660.19638326408 energy=-17658.15454249757 free_energy=-17658.15454249757 stress="0.0002894985588190049 -2.9642226004514957e-05 9.54371907941475e-05 -2.9642226004514957e-05 0.0004269935617396236 -5.1830300387369496e-05 9.54371907941475e-05 -5.1830300387369496e-05 0.00042896692874583666" pbc="T T T"
H        4.69221000       4.79091000       4.73829000       0.07977000       1.26408000       1.40250000       0.09580395       1.29672408       1.40418339       0.16062040       1.96034631       0.12755210
H        5.38617000       2.12601000       1.31001000      -0.50362000       0.76468000       0.76121000      -0.52856976       0.74396253       0.78308773      -0.94795771      -0.07244235      -1.05829820
H        0.65967000       1.18734000       2.30523000       0.47539000       0.24323000       0.41385000       0.51035213       0.20433703       0.38574988      -3.61396374      -1.25927352      -0.08212161
H        4.29969000       1.03947000       0.00000000      -0.22751000      -0.84256000      -2.08839000      -0.17608348      -0.87882602      -2.03449368       0.45322833      -1.96947374       0.82183267
H        1.48908000       0.92007000       0.04371000       1.60846000      -1.10527000       1.72229000       1.57712555      -1.09957528       1.81214130      -0.71333812       2.04516126       0.23847281
H        2.96649000       1.40175000       5.93373000      -0.53159000      -1.84495000      -0.71984000      -0.40959752      -1.67154050      -0.60850090       2.81436636       1.04370808      -0.76795720
H        1.79256000       0.69873000       6.98904000      -1.12914000      -0.03648000       1.24320000      -1.06778836      -0.16123098       1.87722182      -2.35760810       0.10709744      -2.23847268
H        1.56792000       0.00000000       5.30640000       1.76430000       0.39075000       0.79876000       1.75685704       0.24676633       0.95376575      -0.15080322       0.78544104      -0.66137130
C        4.31133000       2.12826000       1.59840000       1.41494000      -1.65529000      -2.48873000       1.49961591      -1.52998626      -2.33527136       0.56805925      -0.92832694       1.78367618
C        1.73667000       1.39053000       2.16627000      -0.64579000       0.76465000      -0.09412000      -0.64689600       0.82314938      -0.10005641       2.73081546       1.94166904      -2.38307888
C        3.56901000       1.36692000       0.68460000       1.34978000       0.21133000       1.11821000       1.02721870       0.07849506       0.95769536       0.07746736       2.13926033      -1.40242804
C        2.27085000       0.97875000       0.93168000      -2.05428000       1.46180000      -1.51177000      -1.87663651       1.55191684      -1.66692901       0.38261817      -3.01940475       0.71297645
C        1.96083000       0.85275000       5.95881000      -0.47559000       2.53606000      -3.42901000      -0.77056170       2.61917424      -4.28684473      -1.68320044      -1.70402914       5.90729774
C        3.75036000       2.66214000       2.68554000       0.20258000       1.74215000       3.19333000       0.11685850       1.78127408       3.27602625       1.73154149       2.02191919       0.68659167
C        2.46297000       2.26914000       2.99955000      -2.82334000      -0.03875000       1.85229000      -2.91711903       0.01046181       1.91818619       0.62494171      -5.31264806       2.13137465
C        4.57173000       3.41244000       3.77895000      -3.54886000      -3.58508000      -3.12343000      -3.38369513      -3.67222977      -3.05728912      -0.65560471       0.04013427      -2.58096634
C        1.08645000       2.01381000       5.25363000      -1.59974000       2.85632000       0.86239000      -1.47443724       2.47566867       1.09648871       5.12872692       1.24971788      -7.90236783
O        5.40282000       2.80833000       4.36902000       3.31840000      -0.92143000       1.40455000       3.25703001      -0.86671233       1.32738709      -1.28482609       0.07213317      -1.01138397
O        0.00000000       2.50236000       5.59152000       1.59304000      -1.97888000       0.23578000       1.57186449      -1.85361910       0.13632411      -3.90228476      -0.69649426       5.00149997
O        3.97710000       4.48467000       4.16337000      -0.32383000       2.90671000       0.10979000      -0.41704962       2.82927942       0.09332263      -0.03132030      -0.31302901       2.16781001
O        1.65519000       2.91594000       4.21728000       2.05665000      -3.13307000      -1.66287000       2.25570774      -2.92748976      -1.93219495       0.66852171       1.86853377       0.50936179
21