21
Lattice="30.0 0.0 0.0 0.0 30.0 0.0 0.0 0.0 30.0" Properties=species:S:1:pos:R:3:castep_forces:R:3:gomace_forces:R:3:forces:R:3 castep_energy=-3295.14424606 gomace_energy=-3294.6103515625 maceoff23_energy=-17658.705033721202 maceoff24_energy=-17658.705512675377 spice_energy=-17658.679852589554 energy=-17658.15454249757 free_energy=-17658.15454249757 stress="0.0002894985588190049 -2.9642226004514957e-05 9.54371907941475e-05 -2.9642226004514957e-05 0.0004269935617396236 -5.1830300387369496e-05 9.54371907941475e-05 -5.1830300387369496e-05 0.00042896692874583666" pbc="T T T"
H        2.55804000       0.06819000       1.95396000       0.42049000      -0.00964000      -0.93686000       0.41013241       0.01734915      -0.90748346       0.16062040       1.96034631       0.12755210
H        6.10941000       1.50612000       2.03154000       2.16051000      -1.62079000       0.34237000       2.37174511      -1.50045788       0.50782871      -0.94795771      -0.07244235      -1.05829820
H        4.70652000       5.43546000       0.00000000      -0.82049000       0.62156000      -0.06911000      -0.77846253       0.64355910      -0.13580835      -3.61396374      -1.25927352      -0.08212161
H        8.19114000       3.19266000       1.12233000      -1.57525000      -0.21116000       1.07015000      -1.60172343      -0.27918592       1.01775551       0.45322833      -1.96947374       0.82183267
H        6.74754000       5.67111000       0.75744000       0.37436000      -2.14551000      -0.08995000       0.39893025      -2.19397116      -0.08058279      -0.71333812       2.04516126       0.23847281
H        0.54927000       2.59899000       2.56101000       0.31402000       0.04498000      -3.17373000       0.39460501       0.16610950      -3.60350609       2.81436636       1.04370808      -0.76795720
H        0.04053000       4.11876000       2.02260000       0.96522000      -2.26737000      -2.49234000       1.17953265      -2.54025173      -2.73622751      -2.35760810       0.10709744      -2.23847268
H        0.00000000       2.65023000       0.47010000       0.94795000       0.83576000       2.80114000       1.45084035       1.28515637       3.68426871      -0.15080322       0.78544104      -0.66137130
C        6.15369000       2.29911000       1.34088000      -4.61998000      -1.80848000       0.79837000      -4.63598633      -1.96571934       0.93057281       0.56805925      -0.92832694       1.78367618
C        5.05020000       4.50594000       0.40797000       0.21583000       0.93060000      -0.81992000       0.22857964       0.97813189      -0.79374337       2.73081546       1.94166904      -2.38307888
C        7.04976000       3.23391000       1.20681000       1.96634000       6.29032000      -2.53012000       2.13441706       6.69273281      -2.61109447       0.07746736       2.13926033      -1.40242804
C        6.39030000       4.56675000       0.73839000       0.70385000      -1.37580000       0.60011000       0.65740526      -1.45838022       0.69355953       0.38261817      -3.01940475       0.71297645
C        0.57891000       3.10983000       1.44366000      -3.66146000       0.33865000       0.70725000      -4.77465439      -0.24594818       0.32388458      -1.68320044      -1.70402914       5.90729774
C        4.68363000       2.30265000       1.02588000       2.94531000      -2.62252000       0.09946000       3.07002878      -2.59758949      -0.03585593       1.73154149       2.02191919       0.68659167
C        4.16268000       3.40632000       0.40488000       2.03897000      -0.11846000       1.88441000       1.68151653      -0.63592994       1.90223289       0.62494171      -5.31264806       2.13137465
C        4.24683000       0.81126000       1.31985000      -0.67257000       1.97955000       0.29413000      -1.04837132       1.77483535       0.27515554      -0.65560471       0.04013427      -2.58096634
C        1.93821000       3.57789000       1.19148000       2.57487000       1.16441000       1.06764000       2.55166459       1.22106540       1.11870933       5.12872692       1.24971788      -7.90236783
O        5.04405000       0.00000000       1.76727000      -1.51188000      -0.25924000      -0.31725000      -1.65538239      -0.18587282      -0.46582198      -1.28482609       0.07213317      -1.01138397
O        2.40201000       4.18104000       2.11551000       0.83435000       1.13658000       2.19564000       1.11004376       1.45760965       2.29925942      -3.90228476      -0.69649426       5.00149997
O        2.85264000       0.60789000       1.16739000       0.75218000      -0.01485000       0.93502000       1.05969930       0.00537091       0.90512288      -0.03132030      -0.31302901       2.16781001
O        2.89320000       3.53085000       0.09462000      -4.35264000      -0.88860000      -2.36641000      -4.20456076      -0.63861299      -2.28822565       0.66852171       1.86853377       0.50936179
21
Lattice="30.0 0.0 0.0 0.0 30.0 0.0 0.0 0.0 30.0" Properties=species:S:1:pos:R:3:castep_forces:R:3:gomace_forces:R:3:forces:R:3 castep_energy=-3296.879317746 gomace_energy=-3296.52197265625 maceoff23_energy=-17660.405722442727 maceoff24_energy=-17660.42085272786 spice_energy=-17660.40743644788 energy=-17658.15454249757 free_energy=-17658.15454249757 stress="0.0002894985588190049 -2.9642226004514957e-05 9.54371907941475e-05 -2.9642226004514957e-05 0.0004269935617396236 -5.1830300387369496e-05 9.54371907941475e-05 -5.1830300387369496e-05 0.00042896692874583666" pbc="T T T"
H        4.75182000       0.62208000       0.11871000       0.09795000      -0.75770000      -1.12663000       0.08232129      -0.81212503      -1.04176414       0.16062040       1.96034631       0.12755210
H        6.31104000       1.35189000       0.55458000       0.82361000       0.63313000      -0.16004000       0.76516199       0.59515512      -0.21819746      -0.94795771      -0.07244235      -1.05829820
H        3.91104000       5.42601000       1.83777000      -1.25196000       2.58731000       0.30523000      -1.39130545       2.63335967       0.45634618      -3.61396374      -1.25927352      -0.08212161
H        7.44735000       3.84837000       0.00000000      -0.52649000      -0.78315000      -0.12498000      -0.58440447      -0.83223271      -0.08955520       0.45322833      -1.96947374       0.82183267
H        6.05802000       5.79114000       0.37764000       0.70681000       0.57004000       0.39016000       0.69047022       0.54143876       0.39571100      -0.71333812       2.04516126       0.23847281
H        0.00000000       4.12683000       2.99067000       0.04634000      -0.33029000      -0.36622000      -0.13498193      -0.10094386      -0.31579176       2.81436636       1.04370808      -0.76795720
H        0.86976000       2.50179000       2.63775000      -1.12213000      -0.54581000      -0.66834000      -1.04352951      -1.15702951      -0.98305005      -2.35760810       0.10709744      -2.23847268
H        0.46911000       2.94024000       4.35981000       0.89356000       1.24356000      -2.18305000       0.66614956       1.15664053      -1.95830536      -0.15080322       0.78544104      -0.66137130
C        5.90658000       2.34906000       0.78165000       1.96094000       2.16530000      -0.19627000       2.08671188       2.10772419      -0.18115307       0.56805925      -0.92832694       1.78367618
C        4.52739000       4.71114000       1.43730000       2.37818000      -1.03236000      -1.08576000       2.66313648      -0.92576551      -1.32902265       2.73081546       1.94166904      -2.38307888
C        6.45564000       3.65079000       0.45678000       0.54765000      -0.03496000       0.27619000       0.53769612       0.11800940       0.25814885       0.07746736       2.13926033      -1.40242804
C        5.80812000       4.85583000       0.84684000      -1.56233000      -2.05781000      -0.27393000      -1.61317325      -2.10512781      -0.33783042       0.38261817      -3.01940475       0.71297645
C        0.74205000       3.36708000       3.26685000      -0.09299000       0.05588000       2.73256000      -0.13586521       0.46821570       2.65496993      -1.68320044      -1.70402914       5.90729774
C        4.75413000       2.32623000       1.51932000      -2.21624000      -2.65986000      -2.23064000      -2.39981437      -2.54146314      -2.14688826       1.73154149       2.02191919       0.68659167
C        3.97371000       3.46962000       1.58172000       0.21760000       0.14549000       1.15081000      -0.00414184      -0.13873762       1.21882105       0.62494171      -5.31264806       2.13137465
C        4.09164000       0.93687000       1.66620000      -1.74236000       1.70054000       7.44511000      -1.77856588       1.56609070       7.39943123      -0.65560471       0.04013427      -2.58096634
C        2.19150000       3.78171000       3.14763000       3.26907000      -3.56069000       1.43179000       3.08656883      -3.60224962       1.79985309       5.12872692       1.24971788      -7.90236783
O        3.55002000       0.83514000       2.89248000       1.77413000      -1.06856000      -6.01409000       1.80970001      -1.00038612      -6.05448437      -1.28482609       0.07213317      -1.01138397
O        3.10677000       3.64476000       3.97818000      -2.28349000       1.89363000      -0.41960000      -2.00303888       1.97330260      -0.51924372      -3.90228476      -0.69649426       5.00149997
O        4.25970000       0.00000000       0.70059000      -0.20973000       1.14262000       0.97512000      -0.18115950       1.32588220       1.01128745      -0.03132030      -0.31302901       2.16781001
O        2.63388000       3.42786000       1.79817000      -1.70810000       0.69370000       0.14259000      -1.11793661       0.73024189      -0.01928222       0.66852171       1.86853377       0.50936179
21
Lattice="30.0 0.0 0.0 0.0 30.0 0.0 0.0 0.0 30.0" Properties=species:S:1:pos:R:3:castep_forces:R:3:gomace_forces:R:3:forces:R:3 castep_energy=-3295.521726941 gomace_energy=-3295.1962890625 maceoff23_energy=-17658.522399059235 maceoff24_energy=-17658.503129764307 spice_energy=-17658.542877749933 energy=-17658.15454249757 free_energy=-17658.15454249757 stress="0.0002894985588190049 -2.9642226004514957e-05 9.54371907941475e-05 -2.9642226004514957e-05 0.0004269935617396236 -5.1830300387369496e-05 9.54371907941475e-05 -5.1830300387369496e-05 0.00042896692874583666" pbc="T T T"
H        4.13139000       0.00000000       1.31094000      -0.64992000       1.89846000      -0.15431000      -0.63662547       1.90188384      -0.22616473       0.16062040       1.96034631       0.12755210
H        7.34685000       2.02365000       1.05699000       0.99313000      -1.28834000       0.03001000       0.97449851      -1.34715402      -0.04499413      -0.94795771      -0.07244235      -1.05829820
H        4.57518000       6.25602000       1.00281000       1.41268000      -2.28729000       0.01044000       1.46648324      -2.43890119       0.00556771      -3.61396374      -1.25927352      -0.08212161
H        8.39436000       4.13757000       0.58386000      -0.02468000       0.86479000       0.54657000       0.00251013       0.86001235       0.53449249       0.45322833      -1.96947374       0.82183267
H        7.19010000       6.26520000       1.00296000      -0.59300000       1.02113000      -0.66466000      -0.67873460       0.92551172      -0.63687456      -0.71333812       2.04516126       0.23847281
H        0.00000000       3.77262000       0.67392000       1.45629000       0.39883000       1.35033000       1.15789080      -0.06777251       1.53158617       2.81436636       1.04370808      -0.76795720
H        0.40386000       5.55513000       0.59145000       0.89311000      -1.99107000       1.51592000       1.06321037      -1.90437198       1.65506291      -2.35760810       0.10709744      -2.23847268
H        1.54395000       4.41240000       0.00000000      -0.44688000      -0.59108000       0.15713000       0.21366823      -0.52454680      -0.40900147      -0.15080322       0.78544104      -0.66137130
C        6.81564000       2.90880000       1.23027000      -1.22031000       3.22079000       1.10467000      -1.37842202       3.10398602       1.23835754       0.56805925      -0.92832694       1.78367618
C        5.24922000       5.23347000       1.09815000      -4.77716000       5.96592000       0.15286000      -4.92172766       6.26066780       0.07754475       2.73081546       1.94166904      -2.38307888
C        7.38855000       4.23492000       1.02423000      -0.73862000      -2.10163000      -1.50268000      -0.71322006      -1.92516971      -1.57199860       0.07746736       2.13926033      -1.40242804
C        6.56604000       5.38887000       0.94872000       4.68374000      -2.17168000       0.70895000       4.89894676      -2.12794828       0.79215443       0.38261817      -3.01940475       0.71297645
C        0.88254000       4.47636000       0.89940000      -1.16851000       2.35842000      -3.95655000      -1.58551681       2.66021919      -3.82539582      -1.68320044      -1.70402914       5.90729774
C        5.53671000       2.91744000       1.75434000      -4.33848000       0.45830000       0.58945000      -4.36643600       0.43298277       0.65107483       1.73154149       2.02191919       0.68659167
C        4.59897000       4.17009000       1.56633000       0.28886000      -6.39479000       0.48160000       0.28748220      -6.62324619       0.17892863       0.62494171      -5.31264806       2.13137465
C        4.63539000       1.68246000       2.31774000      -0.37427000      -1.45239000      -1.80366000      -0.47511116      -1.63923383      -1.83849907      -0.65560471       0.04013427      -2.58096634
C        1.87626000       4.58868000       1.95960000       1.87268000       0.34888000       4.52824000       1.08699107       0.69182837       4.26835394       5.12872692       1.24971788      -7.90236783
O        4.41105000       1.17933000       3.40647000       1.07443000       1.56971000      -1.29807000       1.15277290       1.68768978      -1.31200099      -1.28482609       0.07213317      -1.01138397
O        1.88409000       5.11398000       3.08526000       0.00379000      -1.63734000      -4.03277000       0.33764780      -1.80591583      -3.81674910      -3.90228476      -0.69649426       5.00149997
O        3.96492000       0.99237000       1.10727000       1.93755000      -0.65448000       1.68593000       2.03961039      -0.50946993       1.84487391      -0.03132030      -0.31302901       2.16781001
O        3.24189000       3.71586000       1.48881000      -0.28445000       2.46488000       0.55060000       0.07408178       2.38894892       0.90368140       0.66852171       1.86853377       0.50936179
21
Lattice="30.0 0.0 0.0 0.0 30.0 0.0 0.0 0.0 30.0" Properties=species:S:1:pos:R:3:castep_forces:R:3:gomace_forces:R:3:forces:R:3 castep_energy=-3296.513928245 gomace_energy=-3295.910400390625 maceoff23_energy=-17660.062305073046 maceoff24_energy=-17660.044052721118 spice_energy=-17660.065360013024 energy=-17658.15454249757 free_energy=-17658.15454249757 stress="0.0002894985588190049 -2.9642226004514957e-05 9.54371907941475e-05 -2.9642226004514957e-05 0.0004269935617396236 -5.1830300387369496e-05 9.54371907941475e-05 -5.1830300387369496e-05 0.00042896692874583666" pbc="T T T"
H        2.94945000       0.00000000       4.07436000      -1.70497000       0.36050000      -1.67349000      -1.78207672       0.33031583      -1.66681194       0.16062040       1.96034631       0.12755210
H        5.80314000       2.91393000       5.20038000      -0.69059000       0.46983000      -3.11119000      -0.76254785       0.48293355      -3.15253067      -0.94795771      -0.07244235      -1.05829820
H        4.84818000       3.55179000       0.15123000       1.07970000       1.29488000       2.50935000       1.11560178       1.34707665       2.40558195      -3.61396374      -1.25927352      -0.08212161
H        7.45149000       4.56741000       3.74583000      -2.22193000      -1.12658000      -0.74348000      -2.27773905      -1.18757880      -0.79415011       0.45322833      -1.96947374       0.82183267
H        6.96909000       4.71774000       1.46154000      -1.05129000       0.10588000      -0.32631000      -1.08452570       0.06991795      -0.34212697      -0.71333812       2.04516126       0.23847281
H        0.38748000       1.89573000       0.78381000       1.01021000       1.45094000      -0.14310000       1.02797687       1.23472452      -0.21375531       2.81436636       1.04370808      -0.76795720
H        0.00000000       3.16032000       1.72155000      -4.09583000       2.29186000       4.41089000      -4.54028940       2.20582986       4.60373116      -2.35760810       0.10709744      -2.23847268
H        0.63090000       3.61749000       0.00000000      -0.95031000      -0.94471000       1.93667000      -1.14215147      -1.09094310       1.83139515      -0.15080322       0.78544104      -0.66137130
C        5.59194000       3.19446000       4.02432000       1.44609000      -1.12121000       1.31692000       1.41730058      -1.08824182       1.29226196       0.56805925      -0.92832694       1.78367618
C        5.09571000       3.65457000       1.34553000       0.44214000       1.59637000      -7.10761000       0.55479032       1.73632264      -7.35063028       2.73081546       1.94166904      -2.38307888
C        6.48303000       4.04148000       3.30513000      -0.27017000       0.25375000       2.49035000      -0.19930297       0.30521905       2.52930450       0.07746736       2.13926033      -1.40242804
C        6.11358000       4.23864000       1.99830000       4.53994000       1.67143000      -1.31762000       4.50557995       1.56469607      -1.15229440       0.38261817      -3.01940475       0.71297645
C        0.63546000       3.00972000       1.01370000       4.94023000      -2.83246000      -6.87173000       5.01250839      -2.39565015      -7.05378914      -1.68320044      -1.70402914       5.90729774
C        4.61802000       2.48742000       3.23310000      -0.13889000      -1.30818000       4.51142000      -0.06624252      -1.34122109       4.48656130       1.73154149       2.02191919       0.68659167
C        4.30275000       2.85876000       1.96383000      -4.63923000      -3.38699000       2.52969000      -4.80509090      -3.54554844       2.80416155       0.62494171      -5.31264806       2.13137465
C        4.03932000       1.20879000       3.89586000       2.06858000       1.42855000      -0.60902000       2.17645311       1.21247900      -0.57454443      -0.65560471       0.04013427      -2.58096634
C        2.06001000       3.31107000       1.45092000       0.90031000       0.18031000       2.16389000       0.97128463      -0.06651467       1.99203300       5.12872692       1.24971788      -7.90236783
O        4.75743000       0.57603000       4.72182000      -2.56243000       0.94066000      -1.62144000      -2.59802866       1.04019809      -1.69332671      -1.28482609       0.07213317      -1.01138397
O        2.37864000       4.35960000       1.98363000      -1.17649000       1.11668000      -0.42391000      -0.94683701       1.46002293      -0.21977684      -3.90228476      -0.69649426       5.00149997
O        2.81358000       0.75987000       3.36264000       2.55607000      -1.79439000       3.71199000       2.68483210      -1.66339910       3.74357796      -0.03132030      -0.31302901       2.16781001
O        3.05145000       2.33781000       1.45257000       0.51885000      -0.64712000      -1.63227000       0.73850483      -0.61063892      -1.47487211       0.66852171       1.86853377       0.50936179
21
Lattice="30.0 0.0 0.0 0.0 30.0 0.0 0.0 0.0 30.0" Properties=species:S:1:pos:R:3:castep_forces:R:3:gomace_forces:R:3:forces:R:3 castep_energy=-3295.516058839 gomace_energy=-3295.08837890625 maceoff23_energy=-17658.374474842985 maceoff24_energy=-17658.337871518776 spice_energy=-17658.460622948216 energy=-17658.15454249757 free_energy=-17658.15454249757 stress="0.0002894985588190049 -2.9642226004514957e-05 9.54371907941475e-05 -2.9642226004514957e-05 0.0004269935617396236 -5.1830300387369496e-05 9.54371907941475e-05 -5.1830300387369496e-05 0.00042896692874583666" pbc="T T T"
H        2.35551000       1.92666000       5.06571000       1.20794000      -0.07947000      -0.85153000       1.13132024      -0.05512595      -0.79949796       0.16062040       1.96034631       0.12755210
H        6.13719000       0.37959000       3.07602000      -0.99469000       1.26784000       0.34484000      -1.04200161       1.29359674       0.36469144      -0.94795771      -0.07244235      -1.05829820
H        5.51451000       4.53630000       0.20178000      -0.40942000      -1.09211000       0.90864000      -0.37665564      -1.04854429       0.97299588      -3.61396374      -1.25927352      -0.08212161
H        7.86711000       1.20591000       2.13789000      -0.65503000       1.94678000      -0.65923000      -0.62314045       1.94183540      -0.59429401       0.45322833      -1.96947374       0.82183267
H        7.16820000       2.62245000       0.00000000       1.39455000       0.80721000      -0.17466000       1.34179080       0.82267368      -0.15256073      -0.71333812       2.04516126       0.23847281
H        0.00000000       3.63210000       0.88185000       0.96095000       2.24018000       2.16485000       1.20042133       2.47645807       2.29003119       2.81436636       1.04370808      -0.76795720
H        0.67662000       5.42535000       1.85289000      -0.33435000      -1.61335000       0.06410000      -0.40079767      -1.76261175       0.16923034      -2.35760810       0.10709744      -2.23847268
H        1.13853000       4.78875000       0.25905000      -0.03508000      -0.48222000       2.00582000      -0.00619388      -0.52023947       1.79442453      -0.15080322       0.78544104      -0.66137130
C        5.88639000       1.41852000       2.70543000      -0.16188000       1.49075000      -0.95593000      -0.17499262       1.29154730      -0.88321078       0.56805925      -0.92832694       1.78367618
C        5.55795000       3.68949000       0.95301000       3.37330000      -1.30228000      -1.39457000       3.61620641      -1.15909040      -1.64474905       2.73081546       1.94166904      -2.38307888
C        7.03590000       2.01801000       2.06406000      -0.85546000      -3.28566000      -0.57912000      -0.73832816      -3.29994011      -0.55976319       0.07746736       2.13926033      -1.40242804
C        6.78192000       2.86779000       0.97893000      -1.65019000       0.55342000       0.55219000      -1.71134281       0.60530984       0.44246703       0.38261817      -3.01940475       0.71297645
C        0.81843000       4.41396000       1.35654000       0.40409000      -0.87952000      -4.36661000       0.22208062      -0.64445603      -4.50547743      -1.68320044      -1.70402914       5.90729774
C        4.54596000       2.03007000       2.57919000       3.45014000      -0.93176000       0.01350000       3.67700481      -0.84719151       0.01130940       1.73154149       2.02191919       0.68659167
C        4.54170000       3.24363000       1.71585000      -3.72041000       0.90800000       2.75348000      -4.08730698       0.70818621       2.90302086       0.62494171      -5.31264806       2.13137465
C        3.70227000       1.27731000       3.56082000      -2.28096000      -1.77113000       1.49139000      -2.74167633      -1.73087358       1.54943609      -0.65560471       0.04013427      -2.58096634
C        1.93431000       3.44991000       1.76751000       1.28680000       2.46970000      -0.13684000       0.94501424       2.60203171      -0.29392266       5.12872692       1.24971788      -7.90236783
O        3.55650000       0.00000000       3.67011000       0.51512000       5.46485000      -0.26160000       0.67004883       5.51362514      -0.28771079      -1.28482609       0.07213317      -1.01138397
O        1.80180000       2.30769000       2.05308000       0.33524000      -0.12281000      -0.23908000       0.68269205      -0.47067904       0.01724067      -3.90228476      -0.69649426       5.00149997
O        3.11847000       2.30430000       4.52331000       0.13435000      -2.23701000      -1.12315000       0.40060803      -2.34670711      -1.28183186      -0.03132030      -0.31302901       2.16781001
O        3.44208000       4.21662000       1.67244000      -1.96503000      -3.35141000       0.44353000      -1.98475099      -3.36980438       0.48817110       0.66852171       1.86853377       0.50936179
21
Lattice="30.0 0.0 0.0 0.0 30.0 0.0 0.0 0.0 30.0" Properties=species:S:1:pos:R:3:castep_forces:R:3:gomace_forces:R:3:forces:R:3 castep_energy=-3295.924615052 gomace_energy=-3295.370361328125 maceoff23_energy=-17659.20519589212 maceoff24_energy=-17659.2067768592 spice_energy=-17659.17175112661 energy=-17658.15454249757 free_energy=-17658.15454249757 stress="0.0002894985588190049 -2.9642226004514957e-05 9.54371907941475e-05 -2.9642226004514957e-05 0.0004269935617396236 -5.1830300387369496e-05 9.54371907941475e-05 -5.1830300387369496e-05 0.00042896692874583666" pbc="T T T"
H        2.57259000       1.95894000       5.27481000      -0.07287000      -0.51994000      -0.24054000      -0.09288131      -0.50123560      -0.23824358       0.16062040       1.96034631       0.12755210
H        6.06462000       0.49206000       2.76039000       1.07152000      -3.01042000       1.30636000       1.01162684      -2.97785473       1.31663251      -0.94795771      -0.07244235      -1.05829820
H        4.27989000       4.39740000       0.16194000       1.21784000      -0.54884000       0.07054000       1.00340676      -0.58834505       0.10494313      -3.61396374      -1.25927352      -0.08212161
H        7.47078000       1.31031000       0.78957000      -0.41079000       1.19420000       0.64726000      -0.40565187       1.18944669       0.60841095       0.45322833      -1.96947374       0.82183267
H        6.72576000       3.69498000       0.00000000      -0.34172000      -1.33413000       0.22410000      -0.38000554      -1.34603000       0.23463768      -0.71333812       2.04516126       0.23847281
H        0.48486000       4.69530000       2.37636000       2.47375000       0.38223000      -1.00592000       2.79253292       0.35863286      -0.80029881       2.81436636       1.04370808      -0.76795720
H        0.18183000       4.75794000       0.56289000       1.89497000      -1.15477000       1.20261000       2.32872176      -1.16699648       0.94912535      -2.35760810       0.10709744      -2.23847268
H        0.00000000       3.44622000       1.73706000       1.30138000      -0.24521000      -1.43099000       1.50811315      -0.56632912      -1.43359864      -0.15080322       0.78544104      -0.66137130
C        5.73096000       1.21710000       2.13450000      -0.31519000       3.59999000      -0.52854000      -0.33698577       3.61689544      -0.58895403       0.56805925      -0.92832694       1.78367618
C        4.81110000       3.57093000       0.69210000      -1.29546000      -0.27600000       3.42468000      -1.04293406      -0.11879110       3.25175667       2.73081546       1.94166904      -2.38307888
C        6.60930000       1.89987000       1.21014000      -2.01613000      -2.23601000       0.89515000      -2.00694704      -2.26449561       0.93540847       0.07746736       2.13926033      -1.40242804
C        6.05040000       3.02826000       0.64266000       4.14969000       2.18796000      -3.95890000       4.21217680       2.11968231      -3.82743788       0.38261817      -3.01940475       0.71297645
C        0.83598000       4.19313000       1.39239000      -4.97420000      -0.21715000      -0.37170000      -6.11974812       0.31805429      -0.12628746      -1.68320044      -1.70402914       5.90729774
C        4.57770000       1.87785000       2.62920000      -2.05119000       1.57978000      -0.89047000      -2.02655029       1.64314544      -0.75247157       1.73154149       2.02191919       0.68659167
C        4.20096000       3.12240000       1.87113000      -0.81470000      -2.34605000       0.27413000      -0.88653451      -2.50574017       0.31612879       0.62494171      -5.31264806       2.13137465
C        3.59541000       1.31070000       3.74085000       1.36465000      -4.61948000       2.63817000       1.23112297      -4.51959419       2.61486173      -0.65560471       0.04013427      -2.58096634
C        2.13273000       3.41808000       0.99789000      -2.91834000       1.12236000       1.75274000      -2.68597507       1.04398406       1.48123884       5.12872692       1.24971788      -7.90236783
O        3.63861000       0.00000000       4.24119000      -0.19944000       7.28918000      -2.93693000      -0.11818075       7.26548576      -3.00675082      -1.28482609       0.07213317      -1.01138397
O        2.31246000       2.62581000       0.10248000      -0.10529000       0.62691000       0.02761000      -0.10304978       0.53315836       0.08846557      -3.90228476      -0.69649426       5.00149997
O        2.79558000       2.28822000       4.37793000       1.46279000      -1.16110000      -1.27486000       1.58884370      -1.17523324      -1.30679512      -0.03132030      -0.31302901       2.16781001
O        2.95122000       3.69666000       2.06454000       0.57874000      -0.31351000       0.17551000       0.52889848      -0.35783866       0.17922804       0.66852171       1.86853377       0.50936179
21