21
Lattice="30.0 0.0 0.0 0.0 30.0 0.0 0.0 0.0 30.0" Properties=species:S:1:pos:R:3:castep_forces:R:3:gomace_forces:R:3:spice_forces:R:3:forces:R:3 castep_energy=-3295.14424606 gomace_energy=-3294.6103515625 maceoff23_energy=-17658.705033721202 maceoff24_energy=-17658.705512675377 spice_energy=-17658.679845527982 energy=-17658.679845527906 pbc="T T T"
H        2.55804000       0.06819000       1.95396000       0.42049000      -0.00964000      -0.93686000       0.41013241       0.01734915      -0.90748346       0.58211093       0.41178146      -1.46610723       0.58211093       0.41178146      -1.46610723
H        6.10941000       1.50612000       2.03154000       2.16051000      -1.62079000       0.34237000       2.37174511      -1.50045788       0.50782871       2.37805186      -1.30631796       0.03649322       2.37805186      -1.30631796       0.03649322
H        4.70652000       5.43546000       0.00000000      -0.82049000       0.62156000      -0.06911000      -0.77846253       0.64355910      -0.13580835      -0.73467922       0.28772008       0.08581853      -0.73467922       0.28772008       0.08581853
H        8.19114000       3.19266000       1.12233000      -1.57525000      -0.21116000       1.07015000      -1.60172343      -0.27918592       1.01775551      -1.94382801      -0.23741541       1.16902058      -1.94382801      -0.23741541       1.16902058
H        6.74754000       5.67111000       0.75744000       0.37436000      -2.14551000      -0.08995000       0.39893025      -2.19397116      -0.08058279       0.27296945      -2.51206974      -0.12560967       0.27296945      -2.51206974      -0.12560967
H        0.54927000       2.59899000       2.56101000       0.31402000       0.04498000      -3.17373000       0.39460501       0.16610950      -3.60350609       0.38745161       0.14088319      -3.52579102       0.38745161       0.14088319      -3.52579102
H        0.04053000       4.11876000       2.02260000       0.96522000      -2.26737000      -2.49234000       1.17953265      -2.54025173      -2.73622751       1.13385379      -2.51549279      -2.71156547       1.13385379      -2.51549279      -2.71156547
H        0.00000000       2.65023000       0.47010000       0.94795000       0.83576000       2.80114000       1.45084035       1.28515637       3.68426871       1.17821051       0.98418681       3.10894686       1.17821051       0.98418681       3.10894686
C        6.15369000       2.29911000       1.34088000      -4.61998000      -1.80848000       0.79837000      -4.63598633      -1.96571934       0.93057281      -4.69719687      -1.75900617       1.13388731      -4.69719687      -1.75900617       1.13388731
C        5.05020000       4.50594000       0.40797000       0.21583000       0.93060000      -0.81992000       0.22857964       0.97813189      -0.79374337       0.64821090       1.23359760      -0.88611702       0.64821090       1.23359760      -0.88611702
C        7.04976000       3.23391000       1.20681000       1.96634000       6.29032000      -2.53012000       2.13441706       6.69273281      -2.61109447       1.78726978       6.25936427      -2.72083748       1.78726978       6.25936427      -2.72083748
C        6.39030000       4.56675000       0.73839000       0.70385000      -1.37580000       0.60011000       0.65740526      -1.45838022       0.69355953       0.17742776      -1.45667193       0.58080519       0.17742776      -1.45667193       0.58080519
C        0.57891000       3.10983000       1.44366000      -3.66146000       0.33865000       0.70725000      -4.77465439      -0.24594818       0.32388458      -4.05942835       0.30650162       0.90239876      -4.05942835       0.30650162       0.90239876
C        4.68363000       2.30265000       1.02588000       2.94531000      -2.62252000       0.09946000       3.07002878      -2.59758949      -0.03585593       3.05105079      -2.02669699      -0.26765074       3.05105079      -2.02669699      -0.26765074
C        4.16268000       3.40632000       0.40488000       2.03897000      -0.11846000       1.88441000       1.68151653      -0.63592994       1.90223289       2.19961101      -0.75318101       2.44552901       2.19961101      -0.75318101       2.44552901
C        4.24683000       0.81126000       1.31985000      -0.67257000       1.97955000       0.29413000      -1.04837132       1.77483535       0.27515554      -0.43807741       1.18789649       0.67854402      -0.43807741       1.18789649       0.67854402
C        1.93821000       3.57789000       1.19148000       2.57487000       1.16441000       1.06764000       2.55166459       1.22106540       1.11870933       3.82877807       1.91455235       1.65081931       3.82877807       1.91455235       1.65081931
O        5.04405000       0.00000000       1.76727000      -1.51188000      -0.25924000      -0.31725000      -1.65538239      -0.18587282      -0.46582198      -2.71009107       0.75821677      -0.96111847      -2.71009107       0.75821677      -0.96111847
O        2.40201000       4.18104000       2.11551000       0.83435000       1.13658000       2.19564000       1.11004376       1.45760965       2.29925942       0.33089448       0.29366841       0.79534152       0.33089448       0.29366841       0.79534152
O        2.85264000       0.60789000       1.16739000       0.75218000      -0.01485000       0.93502000       1.05969930       0.00537091       0.90512288       1.40934354      -0.38840098       1.61199991       1.40934354      -0.38840098       1.61199991
O        2.89320000       3.53085000       0.09462000      -4.35264000      -0.88860000      -2.36641000      -4.20456076      -0.63861299      -2.28822565      -4.78474167      -0.82561989      -1.53389138      -4.78474167      -0.82561989      -1.53389138
21
Lattice="30.0 0.0 0.0 0.0 30.0 0.0 0.0 0.0 30.0" Properties=species:S:1:pos:R:3:castep_forces:R:3:gomace_forces:R:3:spice_forces:R:3:forces:R:3 castep_energy=-3296.879317746 gomace_energy=-3296.52197265625 maceoff23_energy=-17660.405722442727 maceoff24_energy=-17660.42085272786 spice_energy=-17660.407436447866 energy=-17660.407436447873 pbc="T T T"
H        4.75182000       0.62208000       0.11871000       0.09795000      -0.75770000      -1.12663000       0.08232129      -0.81212503      -1.04176414      -0.33017072      -1.38951927      -0.74698164      -0.33017072      -1.38951927      -0.74698164
H        6.31104000       1.35189000       0.55458000       0.82361000       0.63313000      -0.16004000       0.76516199       0.59515512      -0.21819746       0.72325969       0.99300807      -0.08466359       0.72325969       0.99300807      -0.08466359
H        3.91104000       5.42601000       1.83777000      -1.25196000       2.58731000       0.30523000      -1.39130545       2.63335967       0.45634618      -1.03856048       2.35987142       0.12980866      -1.03856048       2.35987142       0.12980866
H        7.44735000       3.84837000       0.00000000      -0.52649000      -0.78315000      -0.12498000      -0.58440447      -0.83223271      -0.08955520      -0.85770863      -0.88936453       0.00699991      -0.85770863      -0.88936453       0.00699991
H        6.05802000       5.79114000       0.37764000       0.70681000       0.57004000       0.39016000       0.69047022       0.54143876       0.39571100       0.67050668       0.26307215       0.59174772       0.67050668       0.26307215       0.59174772
H        0.00000000       4.12683000       2.99067000       0.04634000      -0.33029000      -0.36622000      -0.13498193      -0.10094386      -0.31579176       0.32094532      -0.56508048      -0.31205615       0.32094532      -0.56508048      -0.31205615
H        0.86976000       2.50179000       2.63775000      -1.12213000      -0.54581000      -0.66834000      -1.04352951      -1.15702951      -0.98305005      -1.14818661      -0.25147873      -0.46886840      -1.14818661      -0.25147873      -0.46886840
H        0.46911000       2.94024000       4.35981000       0.89356000       1.24356000      -2.18305000       0.66614956       1.15664053      -1.95830536       1.01669586       1.37778328      -2.49396330       1.01669586       1.37778328      -2.49396330
C        5.90658000       2.34906000       0.78165000       1.96094000       2.16530000      -0.19627000       2.08671188       2.10772419      -0.18115307       1.77923327       2.18839289       0.04748730       1.77923327       2.18839289       0.04748730
C        4.52739000       4.71114000       1.43730000       2.37818000      -1.03236000      -1.08576000       2.66313648      -0.92576551      -1.32902265       2.25233949      -1.28904997      -1.02356368       2.25233949      -1.28904997      -1.02356368
C        6.45564000       3.65079000       0.45678000       0.54765000      -0.03496000       0.27619000       0.53769612       0.11800940       0.25814885       0.49862238       0.18217074       0.38423802       0.49862238       0.18217074       0.38423802
C        5.80812000       4.85583000       0.84684000      -1.56233000      -2.05781000      -0.27393000      -1.61317325      -2.10512781      -0.33783042      -1.66687125      -2.34120704      -0.46944344      -1.66687125      -2.34120704      -0.46944344
C        0.74205000       3.36708000       3.26685000      -0.09299000       0.05588000       2.73256000      -0.13586521       0.46821570       2.65496993      -0.25834468      -0.05025654       2.76908866      -0.25834468      -0.05025654       2.76908866
C        4.75413000       2.32623000       1.51932000      -2.21624000      -2.65986000      -2.23064000      -2.39981437      -2.54146314      -2.14688826      -2.08390113      -2.34474344      -2.68279230      -2.08390113      -2.34474344      -2.68279230
C        3.97371000       3.46962000       1.58172000       0.21760000       0.14549000       1.15081000      -0.00414184      -0.13873762       1.21882105       0.37829688       0.24896081       1.18876278       0.37829688       0.24896081       1.18876278
C        4.09164000       0.93687000       1.66620000      -1.74236000       1.70054000       7.44511000      -1.77856588       1.56609070       7.39943123      -2.14829934       1.14260433       8.33372155      -2.14829934       1.14260433       8.33372155
C        2.19150000       3.78171000       3.14763000       3.26907000      -3.56069000       1.43179000       3.08656883      -3.60224962       1.79985309       4.50904667      -4.23460770       1.61999496       4.50904667      -4.23460770       1.61999496
O        3.55002000       0.83514000       2.89248000       1.77413000      -1.06856000      -6.01409000       1.80970001      -1.00038612      -6.05448437       2.28254084      -0.96081519      -7.32293123       2.28254084      -0.96081519      -7.32293123
O        3.10677000       3.64476000       3.97818000      -2.28349000       1.89363000      -0.41960000      -2.00303888       1.97330260      -0.51924372      -3.41461376       2.16714450      -1.64135886      -3.41461376       2.16714450      -1.64135886
O        4.25970000       0.00000000       0.70059000      -0.20973000       1.14262000       0.97512000      -0.18115950       1.32588220       1.01128745       0.10950329       2.38867175       1.08282519       0.10950329       2.38867175       1.08282519
O        2.63388000       3.42786000       1.79817000      -1.70810000       0.69370000       0.14259000      -1.11793661       0.73024189      -0.01928222      -1.59547026       1.00708806       1.09370227      -1.59547026       1.00708806       1.09370227
21
Lattice="30.0 0.0 0.0 0.0 30.0 0.0 0.0 0.0 30.0" Properties=species:S:1:pos:R:3:castep_forces:R:3:gomace_forces:R:3:spice_forces:R:3:forces:R:3 castep_energy=-3295.521726941 gomace_energy=-3295.1962890625 maceoff23_energy=-17658.522399059235 maceoff24_energy=-17658.503129764307 spice_energy=-17658.542877749904 energy=-17658.54287774995 pbc="T T T"
H        4.13139000       0.00000000       1.31094000      -0.64992000       1.89846000      -0.15431000      -0.63662547       1.90188384      -0.22616473      -0.73574198       2.51868250      -0.34299071      -0.73574198       2.51868250      -0.34299071
H        7.34685000       2.02365000       1.05699000       0.99313000      -1.28834000       0.03001000       0.97449851      -1.34715402      -0.04499413       0.80806044      -0.99410457       0.12163769       0.80806044      -0.99410457       0.12163769
H        4.57518000       6.25602000       1.00281000       1.41268000      -2.28729000       0.01044000       1.46648324      -2.43890119       0.00556771       1.61535911      -2.63492477       0.00784328       1.61535911      -2.63492477       0.00784328
H        8.39436000       4.13757000       0.58386000      -0.02468000       0.86479000       0.54657000       0.00251013       0.86001235       0.53449249      -0.31948903       0.94169989       0.74747468      -0.31948903       0.94169989       0.74747468
H        7.19010000       6.26520000       1.00296000      -0.59300000       1.02113000      -0.66466000      -0.67873460       0.92551172      -0.63687456      -0.84341541       0.75820868      -0.74759441      -0.84341541       0.75820868      -0.74759441
H        0.00000000       3.77262000       0.67392000       1.45629000       0.39883000       1.35033000       1.15789080      -0.06777251       1.53158617       1.78812130       0.56239465       1.53166661       1.78812130       0.56239465       1.53166661
H        0.40386000       5.55513000       0.59145000       0.89311000      -1.99107000       1.51592000       1.06321037      -1.90437198       1.65506291       1.07272251      -2.29084401       1.66075280       1.07272251      -2.29084401       1.66075280
H        1.54395000       4.41240000       0.00000000      -0.44688000      -0.59108000       0.15713000       0.21366823      -0.52454680      -0.40900147      -0.63528960      -0.57924288       0.47626574      -0.63528960      -0.57924288       0.47626574
C        6.81564000       2.90880000       1.23027000      -1.22031000       3.22079000       1.10467000      -1.37842202       3.10398602       1.23835754      -1.55311031       3.19021731       1.31045321      -1.55311031       3.19021731       1.31045321
C        5.24922000       5.23347000       1.09815000      -4.77716000       5.96592000       0.15286000      -4.92172766       6.26066780       0.07754475      -5.35058578       5.94378469       0.37999104      -5.35058578       5.94378469       0.37999104
C        7.38855000       4.23492000       1.02423000      -0.73862000      -2.10163000      -1.50268000      -0.71322006      -1.92516971      -1.57199860      -1.00052764      -1.93319854      -1.77096433      -1.00052764      -1.93319854      -1.77096433
C        6.56604000       5.38887000       0.94872000       4.68374000      -2.17168000       0.70895000       4.89894676      -2.12794828       0.79215443       5.28427926      -2.58287405       0.90652749       5.28427926      -2.58287405       0.90652749
C        0.88254000       4.47636000       0.89940000      -1.16851000       2.35842000      -3.95655000      -1.58551681       2.66021919      -3.82539582      -1.39188378       2.54064497      -4.63895585      -1.39188378       2.54064497      -4.63895585
C        5.53671000       2.91744000       1.75434000      -4.33848000       0.45830000       0.58945000      -4.36643600       0.43298277       0.65107483      -4.26247359       0.79976166       0.38808480      -4.26247359       0.79976166       0.38808480
C        4.59897000       4.17009000       1.56633000       0.28886000      -6.39479000       0.48160000       0.28748220      -6.62324619       0.17892863       0.68344313      -6.58621843       0.21422175       0.68344313      -6.58621843       0.21422175
C        4.63539000       1.68246000       2.31774000      -0.37427000      -1.45239000      -1.80366000      -0.47511116      -1.63923383      -1.83849907      -0.82168855      -2.24835503      -1.27986133      -0.82168855      -2.24835503      -1.27986133
C        1.87626000       4.58868000       1.95960000       1.87268000       0.34888000       4.52824000       1.08699107       0.69182837       4.26835394       2.56531912       0.52058340       5.82989220       2.56531912       0.52058340       5.82989220
O        4.41105000       1.17933000       3.40647000       1.07443000       1.56971000      -1.29807000       1.15277290       1.68768978      -1.31200099       1.33152465       2.23994471      -2.78709912       1.33152465       2.23994471      -2.78709912
O        1.88409000       5.11398000       3.08526000       0.00379000      -1.63734000      -4.03277000       0.33764780      -1.80591583      -3.81674910       0.01989233      -2.30806642      -5.53448432       0.01989233      -2.30806642      -5.53448432
O        3.96492000       0.99237000       1.10727000       1.93755000      -0.65448000       1.68593000       2.03961039      -0.50946993       1.84487391       2.36698479      -0.90935461       2.63503548       2.36698479      -0.90935461       2.63503548
O        3.24189000       3.71586000       1.48881000      -0.28445000       2.46488000       0.55060000       0.07408178       2.38894892       0.90368140      -0.62412487       3.04824240       0.89305429      -0.62412487       3.04824240       0.89305429
21
Lattice="30.0 0.0 0.0 0.0 30.0 0.0 0.0 0.0 30.0" Properties=species:S:1:pos:R:3:castep_forces:R:3:gomace_forces:R:3:spice_forces:R:3:forces:R:3 castep_energy=-3296.513928245 gomace_energy=-3295.910400390625 maceoff23_energy=-17660.062305073046 maceoff24_energy=-17660.044052721118 spice_energy=-17660.06535378357 energy=-17660.065353783593 pbc="T T T"
H        2.94945000       0.00000000       4.07436000      -1.70497000       0.36050000      -1.67349000      -1.78207672       0.33031583      -1.66681194      -1.94915259       0.75170018      -2.15191049      -1.94915259       0.75170018      -2.15191049
H        5.80314000       2.91393000       5.20038000      -0.69059000       0.46983000      -3.11119000      -0.76254785       0.48293355      -3.15253067      -0.76859893       0.55282690      -3.48163339      -0.76859893       0.55282690      -3.48163339
H        4.84818000       3.55179000       0.15123000       1.07970000       1.29488000       2.50935000       1.11560178       1.34707665       2.40558195       1.13815372       1.37247286       2.88464464       1.13815372       1.37247286       2.88464464
H        7.45149000       4.56741000       3.74583000      -2.22193000      -1.12658000      -0.74348000      -2.27773905      -1.18757880      -0.79415011      -2.51922622      -1.30603006      -0.88486155      -2.51922622      -1.30603006      -0.88486155
H        6.96909000       4.71774000       1.46154000      -1.05129000       0.10588000      -0.32631000      -1.08452570       0.06991795      -0.34212697      -1.37502652      -0.01092962      -0.17360491      -1.37502652      -0.01092962      -0.17360491
H        0.38748000       1.89573000       0.78381000       1.01021000       1.45094000      -0.14310000       1.02797687       1.23472452      -0.21375531       1.16947062       1.78809398      -0.05819961       1.16947062       1.78809398      -0.05819961
H        0.00000000       3.16032000       1.72155000      -4.09583000       2.29186000       4.41089000      -4.54028940       2.20582986       4.60373116      -3.82429032       2.30829525       4.14908322      -3.82429032       2.30829525       4.14908322
H        0.63090000       3.61749000       0.00000000      -0.95031000      -0.94471000       1.93667000      -1.14215147      -1.09094310       1.83139515      -0.98631607      -1.09400420       2.23634447      -0.98631607      -1.09400420       2.23634447
C        5.59194000       3.19446000       4.02432000       1.44609000      -1.12121000       1.31692000       1.41730058      -1.08824182       1.29226196       1.44706543      -1.28680544       1.14568318       1.44706543      -1.28680544       1.14568318
C        5.09571000       3.65457000       1.34553000       0.44214000       1.59637000      -7.10761000       0.55479032       1.73632264      -7.35063028       0.30018472       1.43207081      -7.19624393       0.30018472       1.43207081      -7.19624393
C        6.48303000       4.04148000       3.30513000      -0.27017000       0.25375000       2.49035000      -0.19930297       0.30521905       2.52930450      -0.46754423       0.23197296       2.39612032      -0.46754423       0.23197296       2.39612032
C        6.11358000       4.23864000       1.99830000       4.53994000       1.67143000      -1.31762000       4.50557995       1.56469607      -1.15229440       4.81530638       1.58467484      -1.19274997       4.81530638       1.58467484      -1.19274997
C        0.63546000       3.00972000       1.01370000       4.94023000      -2.83246000      -6.87173000       5.01250839      -2.39565015      -7.05378914       4.75593617      -2.92852725      -6.97212722       4.75593617      -2.92852725      -6.97212722
C        4.61802000       2.48742000       3.23310000      -0.13889000      -1.30818000       4.51142000      -0.06624252      -1.34122109       4.48656130       0.05657350      -1.00124078       4.53799557       0.05657350      -1.00124078       4.53799557
C        4.30275000       2.85876000       1.96383000      -4.63923000      -3.38699000       2.52969000      -4.80509090      -3.54554844       2.80416155      -4.74016412      -3.53588639       2.67402918      -4.74016412      -3.53588639       2.67402918
C        4.03932000       1.20879000       3.89586000       2.06858000       1.42855000      -0.60902000       2.17645311       1.21247900      -0.57454443       2.30886715       0.83021215      -0.27498988       2.30886715       0.83021215      -0.27498988
C        2.06001000       3.31107000       1.45092000       0.90031000       0.18031000       2.16389000       0.97128463      -0.06651467       1.99203300       1.62762745       0.71093571       2.85602524       1.62762745       0.71093571       2.85602524
O        4.75743000       0.57603000       4.72182000      -2.56243000       0.94066000      -1.62144000      -2.59802866       1.04019809      -1.69332671      -3.51376621       1.66297126      -2.59812989      -3.51376621       1.66297126      -2.59812989
O        2.37864000       4.35960000       1.98363000      -1.17649000       1.11668000      -0.42391000      -0.94683701       1.46002293      -0.21977684      -1.46465649      -0.36878168      -1.14563722      -1.46465649      -0.36878168      -1.14563722
O        2.81358000       0.75987000       3.36264000       2.55607000      -1.79439000       3.71199000       2.68483210      -1.66339910       3.74357796       3.52309033      -2.10239969       4.72106426       3.52309033      -2.10239969       4.72106426
O        3.05145000       2.33781000       1.45257000       0.51885000      -0.64712000      -1.63227000       0.73850483      -0.61063892      -1.47487211       0.46109065       0.41248898      -1.46789186       0.46109065       0.41248898      -1.46789186
21
Lattice="30.0 0.0 0.0 0.0 30.0 0.0 0.0 0.0 30.0" Properties=species:S:1:pos:R:3:castep_forces:R:3:gomace_forces:R:3:spice_forces:R:3:forces:R:3 castep_energy=-3295.516058839 gomace_energy=-3295.08837890625 maceoff23_energy=-17658.374474842985 maceoff24_energy=-17658.337871518776 spice_energy=-17658.460614192256 energy=-17658.460614192307 pbc="T T T"
H        2.35551000       1.92666000       5.06571000       1.20794000      -0.07947000      -0.85153000       1.13132024      -0.05512595      -0.79949796       1.73148691       0.19351033      -1.24315995       1.73148691       0.19351033      -1.24315995
H        6.13719000       0.37959000       3.07602000      -0.99469000       1.26784000       0.34484000      -1.04200161       1.29359674       0.36469144      -1.11637406       1.61400161       0.26260910      -1.11637406       1.61400161       0.26260910
H        5.51451000       4.53630000       0.20178000      -0.40942000      -1.09211000       0.90864000      -0.37665564      -1.04854429       0.97299588      -0.42762358      -1.35490251       1.19598586      -0.42762358      -1.35490251       1.19598586
H        7.86711000       1.20591000       2.13789000      -0.65503000       1.94678000      -0.65923000      -0.62314045       1.94183540      -0.59429401      -0.87826459       2.23304975      -0.72074795      -0.87826459       2.23304975      -0.72074795
H        7.16820000       2.62245000       0.00000000       1.39455000       0.80721000      -0.17466000       1.34179080       0.82267368      -0.15256073       1.40496547       0.96258589       0.16885799       1.40496547       0.96258589       0.16885799
H        0.00000000       3.63210000       0.88185000       0.96095000       2.24018000       2.16485000       1.20042133       2.47645807       2.29003119       1.16375167       2.45094619       2.35980645       1.16375167       2.45094619       2.35980645
H        0.67662000       5.42535000       1.85289000      -0.33435000      -1.61335000       0.06410000      -0.40079767      -1.76261175       0.16923034      -0.29086846      -1.98860596      -0.01521502      -0.29086846      -1.98860596      -0.01521502
H        1.13853000       4.78875000       0.25905000      -0.03508000      -0.48222000       2.00582000      -0.00619388      -0.52023947       1.79442453      -0.07447753      -0.62470155       2.35823843      -0.07447753      -0.62470155       2.35823843
C        5.88639000       1.41852000       2.70543000      -0.16188000       1.49075000      -0.95593000      -0.17499262       1.29154730      -0.88321078      -0.53252702       1.69678810      -1.05268029      -0.53252702       1.69678810      -1.05268029
C        5.55795000       3.68949000       0.95301000       3.37330000      -1.30228000      -1.39457000       3.61620641      -1.15909040      -1.64474905       3.24762117      -1.53678395      -1.25622080       3.24762117      -1.53678395      -1.25622080
C        7.03590000       2.01801000       2.06406000      -0.85546000      -3.28566000      -0.57912000      -0.73832816      -3.29994011      -0.55976319      -0.97861959      -3.37939518      -0.92834551      -0.97861959      -3.37939518      -0.92834551
C        6.78192000       2.86779000       0.97893000      -1.65019000       0.55342000       0.55219000      -1.71134281       0.60530984       0.44246703      -1.86823623       0.15887877       0.69358406      -1.86823623       0.15887877       0.69358406
C        0.81843000       4.41396000       1.35654000       0.40409000      -0.87952000      -4.36661000       0.22208062      -0.64445603      -4.50547743       0.33930306      -0.70651519      -4.79899741       0.33930306      -0.70651519      -4.79899741
C        4.54596000       2.03007000       2.57919000       3.45014000      -0.93176000       0.01350000       3.67700481      -0.84719151       0.01130940       4.21912727      -0.98326614      -0.15950978       4.21912727      -0.98326614      -0.15950978
C        4.54170000       3.24363000       1.71585000      -3.72041000       0.90800000       2.75348000      -4.08730698       0.70818621       2.90302086      -3.71212168       1.21138914       2.65146365      -3.71212168       1.21138914       2.65146365
C        3.70227000       1.27731000       3.56082000      -2.28096000      -1.77113000       1.49139000      -2.74167633      -1.73087358       1.54943609      -2.78175137      -2.45433267       1.98850102      -2.78175137      -2.45433267       1.98850102
C        1.93431000       3.44991000       1.76751000       1.28680000       2.46970000      -0.13684000       0.94501424       2.60203171      -0.29392266       1.68149449       1.30394937       0.20940131       1.68149449       1.30394937       0.20940131
O        3.55650000       0.00000000       3.67011000       0.51512000       5.46485000      -0.26160000       0.67004883       5.51362514      -0.28771079       0.69322191       6.95269001      -0.37066202       0.69322191       6.95269001      -0.37066202
O        1.80180000       2.30769000       2.05308000       0.33524000      -0.12281000      -0.23908000       0.68269205      -0.47067904       0.01724067       0.62270382       1.53233453      -0.64117646       0.62270382       1.53233453      -0.64117646
O        3.11847000       2.30430000       4.52331000       0.13435000      -2.23701000      -1.12315000       0.40060803      -2.34670711      -1.28183186      -0.09059298      -3.12255111      -1.25868146      -0.09059298      -3.12255111      -1.25868146
O        3.44208000       4.21662000       1.67244000      -1.96503000      -3.35141000       0.44353000      -1.98475099      -3.36980438       0.48817110      -2.34927500      -4.15828795       0.55668446      -2.34927500      -4.15828795       0.55668446
21
Lattice="30.0 0.0 0.0 0.0 30.0 0.0 0.0 0.0 30.0" Properties=species:S:1:pos:R:3:castep_forces:R:3:gomace_forces:R:3:spice_forces:R:3:forces:R:3 castep_energy=-3295.924615052 gomace_energy=-3295.370361328125 maceoff23_energy=-17659.20519589212 maceoff24_energy=-17659.2067768592 spice_energy=-17659.17174369237 energy=-17659.171743692354 pbc="T T T"
H        2.57259000       1.95894000       5.27481000      -0.07287000      -0.51994000      -0.24054000      -0.09288131      -0.50123560      -0.23824358       0.08863719      -0.23894483      -0.92332381       0.08863719      -0.23894483      -0.92332381
H        6.06462000       0.49206000       2.76039000       1.07152000      -3.01042000       1.30636000       1.01162684      -2.97785473       1.31663251       0.93110410      -2.79685633       1.03569688       0.93110410      -2.79685633       1.03569688
H        4.27989000       4.39740000       0.16194000       1.21784000      -0.54884000       0.07054000       1.00340676      -0.58834505       0.10494313       1.41064483      -0.82405799       0.22613139       1.41064483      -0.82405799       0.22613139